# vtk DataFile Version 2.0
Blank
ASCII
DATASET STRUCTURED_GRID
DIMENSIONS 101 101 2
POINTS 20402 float
0.0000000000e+00 0.0000000000e+00 0.0000000000e+00
1.0000000000e-02 0.0000000000e+00 0.0000000000e+00
2.0000000000e-02 0.0000000000e+00 0.0000000000e+00
3.0000000000e-02 0.0000000000e+00 0.0000000000e+00
4.0000000000e-02 0.0000000000e+00 0.0000000000e+00
5.0000000000e-02 0.0000000000e+00 0.0000000000e+00
6.0000000000e-02 0.0000000000e+00 0.0000000000e+00
7.0000000000e-02 0.0000000000e+00 0.0000000000e+00
8.0000000000e-02 0.0000000000e+00 0.0000000000e+00
9.0000000000e-02 0.0000000000e+00 0.0000000000e+00
1.0000000000e-01 0.0000000000e+00 0.0000000000e+00
1.1000000000e-01 0.0000000000e+00 0.0000000000e+00
1.2000000000e-01 0.0000000000e+00 0.0000000000e+00
1.3000000000e-01 0.0000000000e+00 0.0000000000e+00
1.4000000000e-01 0.0000000000e+00 0.0000000000e+00
1.5000000000e-01 0.0000000000e+00 0.0000000000e+00
1.6000000000e-01 0.0000000000e+00 0.0000000000e+00
1.7000000000e-01 0.0000000000e+00 0.0000000000e+00
1.8000000000e-01 0.0000000000e+00 0.0000000000e+00
1.9000000000e-01 0.0000000000e+00 0.0000000000e+00
2.0000000000e-01 0.0000000000e+00 0.0000000000e+00
2.1000000000e-01 0.0000000000e+00 0.0000000000e+00
2.2000000000e-01 0.0000000000e+00 0.0000000000e+00
2.3000000000e-01 0.0000000000e+00 0.0000000000e+00
2.4000000000e-01 0.0000000000e+00 0.0000000000e+00
2.5000000000e-01 0.0000000000e+00 0.0000000000e+00
2.6000000000e-01 0.0000000000e+00 0.0000000000e+00
2.7000000000e-01 0.0000000000e+00 0.0000000000e+00
2.8000000000e-01 0.0000000000e+00 0.0000000000e+00
2.9000000000e-01 0.0000000000e+00 0.0000000000e+00
3.0000000000e-01 0.0000000000e+00 0.0000000000e+00
3.1000000000e-01 0.0000000000e+00 0.0000000000e+00
3.2000000000e-01 0.0000000000e+00 0.0000000000e+00
3.3000000000e-01 0.0000000000e+00 0.0000000000e+00
3.4000000000e-01 0.0000000000e+00 0.0000000000e+00
3.5000000000e-01 0.0000000000e+00 0.0000000000e+00
3.6000000000e-01 0.0000000000e+00 0.0000000000e+00
3.7000000000e-01 0.0000000000e+00 0.0000000000e+00
3.8000000000e-01 0.0000000000e+00 0.0000000000e+00
3.9000000000e-01 0.0000000000e+00 0.0000000000e+00
4.0000000000e-01 0.0000000000e+00 0.0000000000e+00
4.1000000000e-01 0.0000000000e+00 0.0000000000e+00
4.2000000000e-01 0.0000000000e+00 0.0000000000e+00
4.3000000000e-01 0.0000000000e+00 0.0000000000e+00
4.4000000000e-01 0.0000000000e+00 0.0000000000e+00
4.5000000000e-01 0.0000000000e+00 0.0000000000e+00
4.6000000000e-01 0.0000000000e+00 0.0000000000e+00
4.7000000000e-01 0.0000000000e+00 0.0000000000e+00
4.8000000000e-01 0.0000000000e+00 0.0000000000e+00
4.9000000000e-01 0.0000000000e+00 0.0000000000e+00
5.0000000000e-01 0.0000000000e+00 0.0000000000e+00
5.1000000000e-01 0.0000000000e+00 0.0000000000e+00
5.2000000000e-01 0.0000000000e+00 0.0000000000e+00
5.3000000000e-01 0.0000000000e+00 0.0000000000e+00
5.4000000000e-01 0.0000000000e+00 0.0000000000e+00
5.5000000000e-01 0.0000000000e+00 0.0000000000e+00
5.6000000000e-01 0.0000000000e+00 0.0000000000e+00
5.7000000000e-01 0.0000000000e+00 0.0000000000e+00
5.8000000000e-01 0.0000000000e+00 0.0000000000e+00
5.9000000000e-01 0.0000000000e+00 0.0000000000e+00
6.0000000000e-01 0.0000000000e+00 0.0000000000e+00
6.1000000000e-01 0.0000000000e+00 0.0000000000e+00
6.2000000000e-01 0.0000000000e+00 0.0000000000e+00
6.3000000000e-01 0.0000000000e+00 0.0000000000e+00
6.4000000000e-01 0.0000000000e+00 0.0000000000e+00
6.5000000000e-01 0.0000000000e+00 0.0000000000e+00
6.6000000000e-01 0.0000000000e+00 0.0000000000e+00
6.7000000000e-01 0.0000000000e+00 0.0000000000e+00
6.8000000000e-01 0.0000000000e+00 0.0000000000e+00
6.9000000000e-01 0.0000000000e+00 0.0000000000e+00
7.0000000000e-01 0.0000000000e+00 0.0000000000e+00
7.1000000000e-01 0.0000000000e+00 0.0000000000e+00
7.2000000000e-01 0.0000000000e+00 0.0000000000e+00
7.3000000000e-01 0.0000000000e+00 0.0000000000e+00
7.4000000000e-01 0.0000000000e+00 0.0000000000e+00
7.5000000000e-01 0.0000000000e+00 0.0000000000e+00
7.6000000000e-01 0.0000000000e+00 0.0000000000e+00
7.7000000000e-01 0.0000000000e+00 0.0000000000e+00
7.8000000000e-01 0.0000000000e+00 0.0000000000e+00
7.9000000000e-01 0.0000000000e+00 0.0000000000e+00
8.0000000000e-01 0.0000000000e+00 0.0000000000e+00
8.1000000000e-01 0.0000000000e+00 0.0000000000e+00
8.2000000000e-01 0.0000000000e+00 0.0000000000e+00
8.3000000000e-01 0.0000000000e+00 0.0000000000e+00
8.4000000000e-01 0.0000000000e+00 0.0000000000e+00
8.5000000000e-01 0.0000000000e+00 0.0000000000e+00
8.6000000000e-01 0.0000000000e+00 0.0000000000e+00
8.7000000000e-01 0.0000000000e+00 0.0000000000e+00
8.8000000000e-01 0.0000000000e+00 0.0000000000e+00
8.9000000000e-01 0.0000000000e+00 0.0000000000e+00
9.0000000000e-01 0.0000000000e+00 0.0000000000e+00
9.1000000000e-01 0.0000000000e+00 0.0000000000e+00
9.2000000000e-01 0.0000000000e+00 0.0000000000e+00
9.3000000000e-01 0.0000000000e+00 0.0000000000e+00
9.4000000000e-01 0.0000000000e+00 0.0000000000e+00
9.5000000000e-01 0.0000000000e+00 0.0000000000e+00
9.6000000000e-01 0.0000000000e+00 0.0000000000e+00
9.7000000000e-01 0.0000000000e+00 0.0000000000e+00
9.8000000000e-01 0.0000000000e+00 0.0000000000e+00
9.9000000000e-01 0.0000000000e+00 0.0000000000e+00
1.0000000000e+00 0.0000000000e+00 0.0000000000e+00
0.0000000000e+00 1.0000000000e-02 0.0000000000e+00
1.0000000000e-02 1.0000000000e-02 0.0000000000e+00
2.0000000000e-02 1.0000000000e-02 0.0000000000e+00
3.0000000000e-02 1.0000000000e-02 0.0000000000e+00
4.0000000000e-02 1.0000000000e-02 0.0000000000e+00
5.0000000000e-02 1.0000000000e-02 0.0000000000e+00
6.0000000000e-02 1.0000000000e-02 0.0000000000e+00
7.0000000000e-02 1.0000000000e-02 0.0000000000e+00
8.0000000000e-02 1.0000000000e-02 0.0000000000e+00
9.0000000000e-02 1.0000000000e-02 0.0000000000e+00
1.0000000000e-01 1.0000000000e-02 0.0000000000e+00
1.1000000000e-01 1.0000000000e-02 0.0000000000e+00
1.2000000000e-01 1.0000000000e-02 0.0000000000e+00
1.3000000000e-01 1.0000000000e-02 0.0000000000e+00
1.4000000000e-01 1.0000000000e-02 0.0000000000e+00
1.5000000000e-01 1.0000000000e-02 0.0000000000e+00
1.6000000000e-01 1.0000000000e-02 0.0000000000e+00
1.7000000000e-01 1.0000000000e-02 0.0000000000e+00
1.8000000000e-01 1.0000000000e-02 0.0000000000e+00
1.9000000000e-01 1.0000000000e-02 0.0000000000e+00
2.0000000000e-01 1.0000000000e-02 0.0000000000e+00
2.1000000000e-01 1.0000000000e-02 0.0000000000e+00
2.2000000000e-01 1.0000000000e-02 0.0000000000e+00
2.3000000000e-01 1.0000000000e-02 0.0000000000e+00
2.4000000000e-01 1.0000000000e-02 0.0000000000e+00
2.5000000000e-01 1.0000000000e-02 0.0000000000e+00
2.6000000000e-01 1.0000000000e-02 0.0000000000e+00
2.7000000000e-01 1.0000000000e-02 0.0000000000e+00
2.8000000000e-01 1.0000000000e-02 0.0000000000e+00
2.9000000000e-01 1.0000000000e-02 0.0000000000e+00
3.0000000000e-01 1.0000000000e-02 0.0000000000e+00
3.1000000000e-01 1.0000000000e-02 0.0000000000e+00
3.2000000000e-01 1.0000000000e-02 0.0000000000e+00
3.3000000000e-01 1.0000000000e-02 0.0000000000e+00
3.4000000000e-01 1.0000000000e-02 0.0000000000e+00
3.5000000000e-01 1.0000000000e-02 0.0000000000e+00
3.6000000000e-01 1.0000000000e-02 0.0000000000e+00
3.7000000000e-01 1.0000000000e-02 0.0000000000e+00
3.8000000000e-01 1.0000000000e-02 0.0000000000e+00
3.9000000000e-01 1.0000000000e-02 0.0000000000e+00
4.0000000000e-01 1.0000000000e-02 0.0000000000e+00
4.1000000000e-01 1.0000000000e-02 0.0000000000e+00
4.2000000000e-01 1.0000000000e-02 0.0000000000e+00
4.3000000000e-01 1.0000000000e-02 0.0000000000e+00
4.4000000000e-01 1.0000000000e-02 0.0000000000e+00
4.5000000000e-01 1.0000000000e-02 0.0000000000e+00
4.6000000000e-01 1.0000000000e-02 0.0000000000e+00
4.7000000000e-01 1.0000000000e-02 0.0000000000e+00
4.8000000000e-01 1.0000000000e-02 0.0000000000e+00
4.9000000000e-01 1.0000000000e-02 0.0000000000e+00
5.0000000000e-01 1.0000000000e-02 0.0000000000e+00
5.1000000000e-01 1.0000000000e-02 0.0000000000e+00
5.2000000000e-01 1.0000000000e-02 0.0000000000e+00
5.3000000000e-01 1.0000000000e-02 0.0000000000e+00
5.4000000000e-01 1.0000000000e-02 0.0000000000e+00
5.5000000000e-01 1.0000000000e-02 0.0000000000e+00
5.6000000000e-01 1.0000000000e-02 0.0000000000e+00
5.7000000000e-01 1.0000000000e-02 0.0000000000e+00
5.8000000000e-01 1.0000000000e-02 0.0000000000e+00
5.9000000000e-01 1.0000000000e-02 0.0000000000e+00
6.0000000000e-01 1.0000000000e-02 0.0000000000e+00
6.1000000000e-01 1.0000000000e-02 0.0000000000e+00
6.2000000000e-01 1.0000000000e-02 0.0000000000e+00
6.3000000000e-01 1.0000000000e-02 0.0000000000e+00
6.4000000000e-01 1.0000000000e-02 0.0000000000e+00
6.5000000000e-01 1.0000000000e-02 0.0000000000e+00
6.6000000000e-01 1.0000000000e-02 0.0000000000e+00
6.7000000000e-01 1.0000000000e-02 0.0000000000e+00
6.8000000000e-01 1.0000000000e-02 0.0000000000e+00
6.9000000000e-01 1.0000000000e-02 0.0000000000e+00
7.0000000000e-01 1.0000000000e-02 0.0000000000e+00
7.1000000000e-01 1.0000000000e-02 0.0000000000e+00
7.2000000000e-01 1.0000000000e-02 0.0000000000e+00
7.3000000000e-01 1.0000000000e-02 0.0000000000e+00
7.4000000000e-01 1.0000000000e-02 0.0000000000e+00
7.5000000000e-01 1.0000000000e-02 0.0000000000e+00
7.6000000000e-01 1.0000000000e-02 0.0000000000e+00
7.7000000000e-01 1.0000000000e-02 0.0000000000e+00
7.8000000000e-01 1.0000000000e-02 0.0000000000e+00
7.9000000000e-01 1.0000000000e-02 0.0000000000e+00
8.0000000000e-01 1.0000000000e-02 0.0000000000e+00
8.1000000000e-01 1.0000000000e-02 0.0000000000e+00
8.2000000000e-01 1.0000000000e-02 0.0000000000e+00
8.3000000000e-01 1.0000000000e-02 0.0000000000e+00
8.4000000000e-01 1.0000000000e-02 0.0000000000e+00
8.5000000000e-01 1.0000000000e-02 0.0000000000e+00
8.6000000000e-01 1.0000000000e-02 0.0000000000e+00
8.7000000000e-01 1.0000000000e-02 0.0000000000e+00
8.8000000000e-01 1.0000000000e-02 0.0000000000e+00
8.9000000000e-01 1.0000000000e-02 0.0000000000e+00
9.0000000000e-01 1.0000000000e-02 0.0000000000e+00
9.1000000000e-01 1.0000000000e-02 0.0000000000e+00
9.2000000000e-01 1.0000000000e-02 0.0000000000e+00
[...]
CELL_DATA 10000

SCALARS massDensity float
LOOKUP_TABLE default
1.1850657646e+00
1.1855505334e+00
1.1862291845e+00
1.1872157347e+00
1.1884534339e+00
1.1898758361e+00
1.1914119854e+00
1.1929922324e+00
1.1945526632e+00
1.1960392884e+00
1.1974101496e+00
1.1986367232e+00
1.1997033264e+00
1.2006060383e+00
1.2013503287e+00
1.2019487912e+00
1.2024184177e+00
1.2027784770e+00
1.2030484910e+00
1.2032469793e+00
1.2033904716e+00
1.2034931544e+00
1.2035667028e+00
1.2036204891e+00
1.2036618355e+00
1.2036964151e+00
1.2037286007e+00
1.2037618225e+00
1.2037988536e+00
1.2038420355e+00
1.2038934580e+00
1.2039550455e+00
1.2040286324e+00
1.2041159163e+00
1.2042184228e+00
1.2043373083e+00
1.2044731927e+00
1.2046257981e+00
1.2047936776e+00
1.2049737875e+00
1.2051612964e+00
1.2053493708e+00
1.2055294278e+00
1.2056914960e+00
1.2058251916e+00
1.2059207142e+00
1.2059703176e+00
1.2059693582e+00
1.2059174104e+00
1.2058183963e+00
1.2056804896e+00
1.2055148647e+00
1.2053344546e+00
1.2051520147e+00
1.2049788110e+00
1.2048232810e+00
1.2046906858e+00
1.2045830015e+00
1.2044995718e+00
1.2044377963e+00
1.2043940584e+00
1.2043644170e+00
1.2043451879e+00
1.2043332400e+00
1.2043261312e+00
1.2043220799e+00
1.2043198692e+00
1.2043187142e+00
1.2043181367e+00
1.2043178604e+00
1.2043177340e+00
1.2043176787e+00
1.2043176556e+00
1.2043176464e+00
1.2043176429e+00
1.2043176416e+00
1.2043176412e+00
1.2043176411e+00
1.2043176410e+00
1.2043176410e+00
1.2043176410e+00
1.2043176410e+00
1.2043176410e+00
1.2043176410e+00
1.2043176410e+00
1.2043176410e+00
1.2043176410e+00
1.2043176410e+00
1.2043176410e+00
1.2043176410e+00
1.2043176410e+00
1.2043176410e+00
1.2043176410e+00
1.2043176410e+00
1.2043176410e+00
1.2043176410e+00
1.2043176410e+00
1.2043176410e+00
1.2043176410e+00
1.2043176410e+00
1.1855505334e+00
1.1860560741e+00
1.1867355279e+00
1.1877116703e+00
1.1889310678e+00
1.1903295315e+00
1.1918384618e+00
1.1933896588e+00
1.1949209087e+00
1.1963791067e+00
1.1977234098e+00
1.1989256900e+00
1.1999708330e+00
1.2008549023e+00
1.2015834917e+00
1.2021688934e+00
1.2026279286e+00
1.2029794199e+00
1.2032425728e+00
1.2034354290e+00
1.2035741581e+00
1.2036724935e+00
1.2037417475e+00
1.2037908703e+00
1.2038268102e+00
1.2038548172e+00
1.2038788458e+00
1.2039018631e+00
1.2039261463e+00
1.2039535087e+00
1.2039854654e+00
1.2040233773e+00
1.2040685097e+00
1.2041221173e+00
1.2041854105e+00
1.2042595752e+00
1.2043456194e+00
1.2044442777e+00
1.2045556936e+00
1.2046791911e+00
1.2048128376e+00
1.2049532332e+00
1.2050952199e+00
1.2052320534e+00
1.2053556443e+00
1.2054574294e+00
1.2055292315e+00
1.2055646297e+00
1.2055598562e+00
1.2055148321e+00
1.2054331471e+00
1.2053219723e+00
1.2051907619e+00
1.2050502118e+00
1.2049104671e+00
1.2047801750e+00
1.2046653798e+00
1.2045694857e+00
1.2044932519e+00
1.2044355118e+00
1.2043937548e+00
1.2043649148e+00
1.2043458658e+00
1.2043338358e+00
1.2043265656e+00
1.2043223630e+00
1.2043200382e+00
1.2043188082e+00
1.2043181857e+00
1.2043178845e+00
1.2043177452e+00
1.2043176836e+00
1.2043176577e+00
1.2043176472e+00
1.2043176432e+00
1.2043176418e+00
1.2043176412e+00
1.2043176411e+00
1.2043176410e+00
1.2043176410e+00
1.2043176410e+00
1.2043176410e+00
1.2043176410e+00
1.2043176410e+00
1.2043176410e+00
1.2043176410e+00
1.2043176410e+00
1.2043176410e+00
1.2043176410e+00
1.2043176410e+00
1.2043176410e+00
1.2043176410e+00
1.2043176410e+00
1.2043176410e+00
1.2043176410e+00
1.2043176410e+00
1.2043176410e+00
1.2043176410e+00
1.2043176410e+00
1.2043176410e+00
1.1862291845e+00
1.1867355279e+00
1.1873949439e+00
1.1883378658e+00
1.1895132003e+00
1.1908600370e+00
1.1923122815e+00
1.1938049155e+00
1.1952778050e+00
1.1966803221e+00
1.1979728923e+00
1.1991288339e+00
1.2001333896e+00
1.2009830732e+00
1.2016831108e+00
1.2022455455e+00
1.2026864422e+00
1.2030240471e+00
1.2032767374e+00
1.2034619429e+00
1.2035951301e+00
1.2036895371e+00
1.2037559638e+00
1.2038030122e+00
1.2038372879e+00
1.2038638029e+00
1.2038862782e+00
1.2039074952e+00
1.2039295464e+00
1.2039540644e+00
1.2039823924e+00
1.2040157058e+00
1.2040551300e+00
1.2041017909e+00
1.2041569003e+00
1.2042217319e+00
1.2042976321e+00
1.2043858450e+00
1.2044873498e+00
1.2046024537e+00
1.2047304311e+00
1.2048689890e+00
1.2050139680e+00
1.2051591005e+00
1.2052962938e+00
1.2054161572e+00
1.2055091703e+00
1.2055668881e+00
1.2055835063e+00
1.2055567900e+00
1.2054889068e+00
1.2053859894e+00
1.2052575721e+00
1.2051148034e+00
1.2049691396e+00
1.2048304636e+00
1.2047063317e+00
1.2046011799e+00
1.2045166709e+00
1.2044520123e+00
1.2044048799e+00
1.2043720785e+00
1.2043502842e+00
1.2043364401e+00
1.2043280361e+00
1.2043231566e+00
1.2043204482e+00
1.2043190106e+00
1.2043182813e+00
1.2043179276e+00
1.2043177637e+00
1.2043176913e+00
1.2043176607e+00
1.2043176483e+00
1.2043176436e+00
1.2043176419e+00
1.2043176413e+00
1.2043176411e+00
1.2043176410e+00
1.2043176410e+00
1.2043176410e+00
1.2043176410e+00
1.2043176410e+00
1.2043176410e+00
1.2043176410e+00
1.2043176410e+00
1.2043176410e+00
1.2043176410e+00
1.2043176410e+00
1.2043176410e+00
1.2043176410e+00
1.2043176410e+00
1.2043176410e+00
1.2043176410e+00
1.2043176410e+00
1.2043176410e+00
1.2043176410e+00
1.2043176410e+00
1.2043176410e+00
1.2043176410e+00
1.1872157347e+00
1.1877116703e+00
1.1883378658e+00
1.1892303217e+00
1.1903413418e+00
1.1916131633e+00
1.1929840651e+00
1.1943923240e+00
1.1957817945e+00
1.1971043325e+00
1.1983231110e+00
1.1994126517e+00
1.2003594443e+00
1.2011599769e+00
1.2018194845e+00
1.2023491664e+00
1.2027643803e+00
1.2030822136e+00
1.2033201208e+00
1.2034944411e+00
1.2036198222e+00
1.2037086641e+00
1.2037711720e+00
1.2038153832e+00
1.2038475168e+00
1.2038722277e+00
1.2038929853e+00
1.2039123333e+00
1.2039321713e+00
1.2039539446e+00
1.2039788157e+00
1.2040077995e+00
1.2040418664e+00
1.2040820618e+00
1.2041295715e+00
1.2041858174e+00
1.2042524314e+00
1.2043312175e+00
1.2044238902e+00
1.2045317515e+00
1.2046551185e+00
1.2047927695e+00
1.2049413317e+00
1.2050949790e+00
1.2052454187e+00
1.2053825028e+00
1.2054952538e+00
1.2055734741e+00
1.2056092857e+00
1.2055987593e+00
1.2055425715e+00
1.2054463347e+00
1.2053194418e+00
1.2051739107e+00
1.2050221245e+00
1.2048754510e+00
1.2047425299e+00
1.2046289510e+00
1.2045369483e+00
1.2044661733e+00
1.2044143106e+00
1.2043780938e+00
1.2043539458e+00
1.2043385756e+00
1.2043292249e+00
1.2043237903e+00
1.2043207706e+00
1.2043191675e+00
1.2043183540e+00
1.2043179598e+00
1.2043177774e+00
1.2043176967e+00
1.2043176628e+00
1.2043176491e+00
1.2043176439e+00
1.2043176420e+00
1.2043176413e+00
1.2043176411e+00
1.2043176410e+00
1.2043176410e+00
1.2043176410e+00
1.2043176410e+00
1.2043176410e+00
1.2043176410e+00
1.2043176410e+00
1.2043176410e+00
1.2043176410e+00
1.2043176410e+00
1.2043176410e+00
1.2043176410e+00
1.2043176410e+00
1.2043176410e+00
1.2043176410e+00
1.2043176410e+00
1.2043176410e+00
1.2043176410e+00
1.2043176410e+00
1.2043176410e+00
1.2043176410e+00
1.2043176410e+00
1.1884534339e+00
1.1889310678e+00
1.1895132003e+00
1.1903413418e+00
1.1913708272e+00
1.1925487443e+00
1.1938174880e+00
1.1951205873e+00
1.1964056175e+00
1.1976286466e+00
1.1987552046e+00
1.1997622411e+00
1.2006369591e+00
1.2013765102e+00
1.2019855227e+00
1.2024746334e+00
1.2028578904e+00
1.2031512712e+00
1.2033707978e+00
1.2035316773e+00
1.2036473589e+00
1.2037293547e+00
1.2037870220e+00
1.2038278043e+00
1.2038573827e+00
1.2038800460e+00
1.2038989325e+00
1.2039163495e+00
1.2039339727e+00
1.2039530619e+00
1.2039746031e+00
1.2039994490e+00
1.2040284472e+00
1.2040625570e+00
1.2041029920e+00
1.2041513064e+00
1.2042094769e+00
1.2042798215e+00
1.2043648198e+00
1.2044666647e+00
1.2045866780e+00
1.2047245361e+00
1.2048775533e+00
1.2050401431e+00
1.2052037390e+00
1.2053572921e+00
1.2054884613e+00
1.2055852620e+00
1.2056380875e+00
1.2056413211e+00
1.2055946785e+00
1.2055031426e+00
1.2053764997e+00
1.2052273119e+00
1.2050692785e+00
1.2049147762e+00
1.2047737468e+00
1.2046524803e+00
1.2045538970e+00
1.2044777915e+00
1.2044219355e+00
1.2043828595e+00
1.2043567990e+00
1.2043402022e+00
1.2043301126e+00
1.2043242514e+00
1.2043209995e+00
1.2043192755e+00
1.2043184026e+00
1.2043179805e+00
1.2043177857e+00
1.2043177000e+00
1.2043176639e+00
1.2043176495e+00
1.2043176440e+00
1.2043176420e+00
1.2043176413e+00
1.2043176411e+00
1.2043176410e+00
1.2043176410e+00
1.2043176410e+00
1.2043176410e+00
1.2043176410e+00
1.2043176410e+00
1.2043176410e+00
1.2043176410e+00
1.2043176410e+00
1.2043176410e+00
1.2043176410e+00
1.2043176410e+00
1.2043176410e+00
1.2043176410e+00
1.2043176410e+00
1.2043176410e+00
1.2043176410e+00
1.2043176410e+00
1.2043176410e+00
1.2043176410e+00
1.2043176410e+00
1.2043176410e+00
1.1898758361e+00
1.1903295315e+00
1.1908600370e+00
1.1916131633e+00
1.1925487443e+00
1.1936181849e+00
1.1947698186e+00
1.1959518488e+00
1.1971173692e+00
1.1982260384e+00
1.1992471901e+00
1.2001595384e+00
1.2009519660e+00
1.2016216166e+00
1.2021730446e+00
1.2026157015e+00
1.2029625605e+00
1.2032279657e+00
1.2034265834e+00
1.2035720907e+00
1.2036767551e+00
1.2037509254e+00
1.2038031173e+00
1.2038400061e+00
1.2038667460e+00
1.2038871584e+00
1.2039040649e+00
1.2039194847e+00
1.2039348830e+00
1.2039513179e+00
1.2039696084e+00
1.2039904588e+00
1.2040146018e+00
1.2040429517e+00
1.2040767574e+00
1.2041177646e+00
1.2041682905e+00
1.2042312137e+00
1.2043097326e+00
1.2044069139e+00
1.2045249651e+00
1.2046643458e+00
1.2048228758e+00
1.2049950420e+00
1.2051718377e+00
1.2053412380e+00
1.2054894804e+00
1.2056029668e+00
1.2056704071e+00
1.2056849518e+00
1.2056453555e+00
1.2055565646e+00
1.2054285415e+00
1.2052749165e+00
1.2051102456e+00
1.2049482589e+00
1.2047996546e+00
1.2046716122e+00
1.2045673018e+00
1.2044867739e+00
1.2044276471e+00
1.2043863340e+00
1.2043588022e+00
1.2043413057e+00
1.2043306872e+00
1.2043245362e+00
1.2043211323e+00
1.2043193340e+00
1.2043184267e+00
1.2043179897e+00
1.2043177889e+00
1.2043177009e+00
1.2043176642e+00
1.2043176495e+00
1.2043176440e+00
1.2043176420e+00
1.2043176413e+00
1.2043176411e+00
1.2043176410e+00
1.2043176410e+00
1.2043176410e+00
1.2043176410e+00
1.2043176410e+00
1.2043176410e+00
1.2043176410e+00
1.2043176410e+00
1.2043176410e+00
1.2043176410e+00
1.2043176410e+00
1.2043176410e+00
1.2043176410e+00
1.2043176410e+00
1.2043176410e+00
1.2043176410e+00
1.2043176410e+00
1.2043176410e+00
1.2043176410e+00
1.2043176410e+00
1.2043176410e+00
1.2043176410e+00
1.1914119854e+00
1.1918384618e+00
1.1923122815e+00
1.1929840651e+00
1.1938174880e+00
1.1947698186e+00
1.1957944889e+00
1.1968460589e+00
1.1978822532e+00
1.1988678311e+00
1.1997750712e+00
1.2005856002e+00
1.2012892000e+00
1.2018837600e+00
1.2023730934e+00
1.2027658999e+00
1.2030735429e+00
1.2033089592e+00
1.2034850590e+00
1.2036141046e+00
1.2037069013e+00
1.2037727007e+00
1.2038189926e+00
1.2038517301e+00
1.2038754260e+00
1.2038934697e+00
1.2039083002e+00
1.2039216758e+00
1.2039348185e+00
1.2039486054e+00
1.2039636842e+00
1.2039806291e+00
1.2040000825e+00
1.2040229362e+00
1.2040505257e+00
1.2040848119e+00
1.2041285089e+00
1.2041850575e+00
1.2042583844e+00
1.2043523691e+00
1.2044700071e+00
1.2046123994e+00
1.2047776630e+00
1.2049601868e+00
1.2051503180e+00
1.2053349649e+00
1.2054989307e+00
1.2056270512e+00
1.2057066622e+00
1.2057297675e+00
1.2056947335e+00
1.2056063850e+00
1.2054754839e+00
1.2053163476e+00
1.2051448704e+00
1.2049755491e+00
1.2048201310e+00
1.2046861196e+00
1.2045771030e+00
1.2044930129e+00
1.2044314294e+00
1.2043884818e+00
1.2043599570e+00
1.2043418797e+00
1.2043309528e+00
1.2043246459e+00
1.2043211718e+00
1.2043193445e+00
1.2043184273e+00
1.2043179880e+00
1.2043177873e+00
1.2043176999e+00
1.2043176636e+00
1.2043176493e+00
1.2043176439e+00
1.2043176420e+00
1.2043176413e+00
1.2043176411e+00
1.2043176410e+00
1.2043176410e+00
1.2043176410e+00
1.2043176410e+00
1.2043176410e+00
1.2043176410e+00
1.2043176410e+00
1.2043176410e+00
1.2043176410e+00
1.2043176410e+00
1.2043176410e+00
1.2043176410e+00
1.2043176410e+00
1.2043176410e+00
1.2043176410e+00
1.2043176410e+00
1.2043176410e+00
1.2043176410e+00
1.2043176410e+00
1.2043176410e+00
1.2043176410e+00
1.2043176410e+00
1.1929922324e+00
1.1933896588e+00
1.1938049155e+00
1.1943923240e+00
1.1951205873e+00
1.1959518488e+00
1.1968460589e+00
1.1977630112e+00
1.1986664686e+00
1.1995252052e+00
1.2003156389e+00
1.2010213672e+00
1.2016339653e+00
1.2021513154e+00
1.2025770950e+00
1.2029186889e+00
1.2031862338e+00
1.2033908593e+00
1.2035439552e+00
1.2036560970e+00
1.2037367760e+00
1.2037939670e+00
1.2038342315e+00
1.2038626844e+00
1.2038832645e+00
1.2038988560e+00
1.2039115619e+00
1.2039228360e+00
1.2039336906e+00
1.2039448024e+00
1.2039566758e+00
1.2039697625e+00
1.2039846471e+00
1.2040022364e+00
1.2040239943e+00
1.2040521538e+00
1.2040898632e+00
1.2041411578e+00
1.2042106853e+00
1.2043030732e+00
1.2044220139e+00
1.2045690422e+00
1.2047424164e+00
1.2049361392e+00
1.2051397927e+00
1.2053390363e+00
1.2055172625e+00
1.2056578657e+00
1.2057469434e+00
1.2057758289e+00
1.2057425471e+00
1.2056524636e+00
1.2055168860e+00
1.2053514252e+00
1.2051727492e+00
1.2049965377e+00
1.2048349234e+00
1.2046959807e+00
1.2045831942e+00
1.2044965342e+00
1.2044332607e+00
1.2043893352e+00
1.2043602710e+00
1.2043419460e+00
1.2043309193e+00
1.2043245907e+00
1.2043211231e+00
1.2043193106e+00
1.2043184065e+00
1.2043179764e+00
1.2043177813e+00
1.2043176970e+00
1.2043176623e+00
1.2043176487e+00
1.2043176437e+00
1.2043176419e+00
1.2043176413e+00
1.2043176411e+00
1.2043176410e+00
1.2043176410e+00
1.2043176410e+00
1.2043176410e+00
1.2043176410e+00
1.2043176410e+00
1.2043176410e+00
1.2043176410e+00
1.2043176410e+00
1.2043176410e+00
1.2043176410e+00
1.2043176410e+00
1.2043176410e+00
1.2043176410e+00
1.2043176410e+00
1.2043176410e+00
1.2043176410e+00
1.2043176410e+00
1.2043176410e+00
1.2043176410e+00
1.2043176410e+00
1.2043176410e+00
1.1945526632e+00
1.1949209087e+00
1.1952778050e+00
1.1957817945e+00
1.1964056175e+00
1.1971173692e+00
1.1978822532e+00
1.1986664686e+00
1.1994385238e+00
1.2001723076e+00
1.2008472440e+00
1.2014498238e+00
1.2019725338e+00
1.2024139605e+00
1.2027770215e+00
1.2030683032e+00
1.2032963038e+00
1.2034707061e+00
1.2036011189e+00
1.2036966762e+00
1.2037653912e+00
1.2038141274e+00
1.2038484121e+00
1.2038726328e+00
1.2038900827e+00
1.2039032151e+00
1.2039137481e+00
1.2039228811e+00
1.2039313871e+00
1.2039397808e+00
1.2039484157e+00
1.2039576611e+00
1.2039680657e+00
1.2039806038e+00
1.2039969179e+00
1.2040195743e+00
1.2040522017e+00
1.2040994670e+00
1.2041667104e+00
1.2042592701e+00
1.2043813567e+00
1.2045348144e+00
1.2047177207e+00
1.2049235590e+00
1.2051408325e+00
1.2053539398e+00
1.2055447934e+00
1.2056954960e+00
1.2057912268e+00
1.2058228051e+00
1.2057885443e+00
1.2056942528e+00
1.2055524776e+00
1.2053796447e+00
1.2051937408e+00
1.2050109158e+00
1.2048440350e+00
1.2047010814e+00
1.2045856530e+00
1.2044973357e+00
1.2044332220e+00
1.2043889257e+00
1.2043597971e+00
1.2043415307e+00
1.2043306122e+00
1.2043243841e+00
1.2043209961e+00
1.2043192376e+00
1.2043183672e+00
1.2043179565e+00
1.2043177718e+00
1.2043176927e+00
1.2043176605e+00
1.2043176480e+00
1.2043176434e+00
1.2043176418e+00
1.2043176412e+00
1.2043176411e+00
1.2043176410e+00
1.2043176410e+00
1.2043176410e+00
1.2043176410e+00
1.2043176410e+00
1.2043176410e+00
1.2043176410e+00
1.2043176410e+00
1.2043176410e+00
1.2043176410e+00
1.2043176410e+00
1.2043176410e+00
1.2043176410e+00
1.2043176410e+00
1.2043176410e+00
1.2043176410e+00
1.2043176410e+00
1.2043176410e+00
1.2043176410e+00
1.2043176410e+00
1.2043176410e+00
1.2043176410e+00
1.1960392884e+00
1.1963791067e+00
1.1966803221e+00
1.1971043325e+00
1.1976286466e+00
1.1982260384e+00
1.1988678311e+00
1.1995252052e+00
1.2001723076e+00
1.2007868286e+00
1.2013520331e+00
1.2018562663e+00
1.2022936516e+00
1.2026627583e+00
1.2029663395e+00
1.2032097338e+00
1.2034002650e+00
1.2035459106e+00
1.2036548419e+00
1.2037346063e+00
1.2037919820e+00
1.2038326333e+00
1.2038612188e+00
1.2038813378e+00
1.2038957476e+00
1.2039064233e+00
1.2039147707e+00
1.2039216993e+00
1.2039277939e+00
1.2039333884e+00
1.2039387327e+00
1.2039441205e+00
1.2039501235e+00
1.2039578223e+00
1.2039691134e+00
1.2039869483e+00
1.2040155064e+00
1.2040600886e+00
1.2041267408e+00
1.2042213753e+00
1.2043486393e+00
1.2045103698e+00
1.2047043322e+00
1.2049230919e+00
1.2051540250e+00
1.2053800233e+00
1.2055816547e+00
1.2057398591e+00
1.2058391306e+00
1.2058703037e+00
1.2058320431e+00
1.2057313262e+00
1.2055816012e+00
1.2054007680e+00
1.2052074324e+00
1.2050186766e+00
1.2048473202e+00
1.2047015497e+00
1.2045844963e+00
1.2044955631e+00
1.2044313787e+00
1.2043873551e+00
1.2043585884e+00
1.2043406864e+00
1.2043300600e+00
1.2043240475e+00
1.2043208022e+00
1.2043191323e+00
1.2043183131e+00
1.2043179301e+00
1.2043177596e+00
1.2043176874e+00
1.2043176583e+00
1.2043176471e+00
1.2043176431e+00
1.2043176417e+00
1.2043176412e+00
1.2043176411e+00
1.2043176410e+00
1.2043176410e+00
1.2043176410e+00
1.2043176410e+00
1.2043176410e+00
1.2043176410e+00
1.2043176410e+00
1.2043176410e+00
1.2043176410e+00
1.2043176410e+00
1.2043176410e+00
1.2043176410e+00
1.2043176410e+00
1.2043176410e+00
1.2043176410e+00
1.2043176410e+00
1.2043176410e+00
1.2043176410e+00
1.2043176410e+00
1.2043176410e+00
1.2043176410e+00
1.2043176410e+00
1.1974101496e+00
1.1977234098e+00
1.1979728923e+00
1.1983231110e+00
1.1987552046e+00
1.1992471901e+00
1.1997750712e+00
1.2003156389e+00
1.2008472440e+00
1.2013520331e+00
1.2018159186e+00
1.2022297445e+00
1.2025884242e+00
1.2028911099e+00
1.2031398716e+00
1.2033393236e+00
1.2034953384e+00
1.2036146128e+00
1.2037037469e+00
1.2037690217e+00
1.2038159134e+00
1.2038491137e+00
1.2038723685e+00
1.2038886416e+00
1.2039001153e+00
1.2039083868e+00
1.2039145134e+00
1.2039191829e+00
1.2039227651e+00
1.2039254690e+00
1.2039274347e+00
1.2039289439e+00
1.2039306166e+00
1.2039337235e+00
1.2039404647e+00
1.2039542699e+00
1.2039798942e+00
1.2040233287e+00
1.2040912331e+00
1.2041900601e+00
1.2043246078e+00
1.2044965918e+00
1.2047030275e+00
1.2049354840e+00
1.2051798240e+00
1.2054175330e+00
1.2056277647e+00
1.2057905685e+00
1.2058901297e+00
1.2059175059e+00
1.2058724103e+00
1.2057628266e+00
1.2056038449e+00
1.2054142180e+00
1.2052137487e+00
1.2050196015e+00
1.2048449378e+00
1.2046974093e+00
1.2045799446e+00
1.2044913232e+00
1.2044279012e+00
1.2043847160e+00
1.2043567402e+00
1.2043394655e+00
1.2043293039e+00
1.2043236032e+00
1.2043205556e+00
1.2043190022e+00
1.2043182480e+00
1.2043178992e+00
1.2043177457e+00
1.2043176814e+00
1.2043176558e+00
1.2043176462e+00
1.2043176427e+00
1.2043176415e+00
1.2043176412e+00
1.2043176410e+00
1.2043176410e+00
1.2043176410e+00
1.2043176410e+00
1.2043176410e+00
1.2043176410e+00
1.2043176410e+00
1.2043176410e+00
1.2043176410e+00
1.2043176410e+00
1.2043176410e+00
1.2043176410e+00
1.2043176410e+00
1.2043176410e+00
1.2043176410e+00
1.2043176410e+00
1.2043176410e+00
1.2043176410e+00
1.2043176410e+00
1.2043176410e+00
1.2043176410e+00
1.2043176410e+00
1.2043176410e+00
1.1986367232e+00
1.1989256900e+00
1.1991288339e+00
1.1994126517e+00
1.1997622411e+00
1.2001595384e+00
1.2005856002e+00
1.2010213672e+00
1.2014498238e+00
1.2018562663e+00
1.2022297445e+00
1.2025626243e+00
1.2028511384e+00
1.2030944068e+00
1.2032943409e+00
1.2034545081e+00
1.2035798006e+00
1.2036754954e+00
1.2037470051e+00
1.2037992927e+00
1.2038368188e+00
1.2038632777e+00
1.2038817017e+00
1.2038943933e+00
1.2039030924e+00
1.2039089868e+00
1.2039128734e+00
1.2039151881e+00
1.2039161525e+00
1.2039158343e+00
1.2039143323e+00
1.2039119279e+00
1.2039093778e+00
1.2039081849e+00
1.2039109607e+00
1.2039216511e+00
1.2039456774e+00
1.2039896695e+00
1.2040609136e+00
1.2041661631e+00
1.2043102816e+00
1.2044944226e+00
1.2047147553e+00
1.2049613675e+00
1.2052186635e+00
1.2054664701e+00
1.2056828025e+00
1.2058470119e+00
1.2059432974e+00
1.2059635501e+00
1.2059085601e+00
1.2057880950e+00
1.2056184041e+00
1.2054197737e+00
1.2052123404e+00
1.2050138380e+00
1.2048368907e+00
1.2046889534e+00
1.2045721468e+00
1.2044848739e+00
1.2044229343e+00
1.2043811660e+00
1.2043543413e+00
1.2043379418e+00
1.2043283843e+00
1.2043230784e+00
1.2043202707e+00
1.2043188555e+00
1.2043181762e+00
1.2043178658e+00
1.2043177309e+00
1.2043176752e+00