# vtk DataFile Version 2.0
Blank
ASCII
DATASET STRUCTURED_GRID
DIMENSIONS 101 101 2
POINTS 20402 float
0.0000000000e+00 0.0000000000e+00 0.0000000000e+00
1.0000000000e-02 0.0000000000e+00 0.0000000000e+00
2.0000000000e-02 0.0000000000e+00 0.0000000000e+00
3.0000000000e-02 0.0000000000e+00 0.0000000000e+00
4.0000000000e-02 0.0000000000e+00 0.0000000000e+00
5.0000000000e-02 0.0000000000e+00 0.0000000000e+00
6.0000000000e-02 0.0000000000e+00 0.0000000000e+00
7.0000000000e-02 0.0000000000e+00 0.0000000000e+00
8.0000000000e-02 0.0000000000e+00 0.0000000000e+00
9.0000000000e-02 0.0000000000e+00 0.0000000000e+00
1.0000000000e-01 0.0000000000e+00 0.0000000000e+00
1.1000000000e-01 0.0000000000e+00 0.0000000000e+00
1.2000000000e-01 0.0000000000e+00 0.0000000000e+00
1.3000000000e-01 0.0000000000e+00 0.0000000000e+00
1.4000000000e-01 0.0000000000e+00 0.0000000000e+00
1.5000000000e-01 0.0000000000e+00 0.0000000000e+00
1.6000000000e-01 0.0000000000e+00 0.0000000000e+00
1.7000000000e-01 0.0000000000e+00 0.0000000000e+00
1.8000000000e-01 0.0000000000e+00 0.0000000000e+00
1.9000000000e-01 0.0000000000e+00 0.0000000000e+00
2.0000000000e-01 0.0000000000e+00 0.0000000000e+00
2.1000000000e-01 0.0000000000e+00 0.0000000000e+00
2.2000000000e-01 0.0000000000e+00 0.0000000000e+00
2.3000000000e-01 0.0000000000e+00 0.0000000000e+00
2.4000000000e-01 0.0000000000e+00 0.0000000000e+00
2.5000000000e-01 0.0000000000e+00 0.0000000000e+00
2.6000000000e-01 0.0000000000e+00 0.0000000000e+00
2.7000000000e-01 0.0000000000e+00 0.0000000000e+00
2.8000000000e-01 0.0000000000e+00 0.0000000000e+00
2.9000000000e-01 0.0000000000e+00 0.0000000000e+00
3.0000000000e-01 0.0000000000e+00 0.0000000000e+00
3.1000000000e-01 0.0000000000e+00 0.0000000000e+00
3.2000000000e-01 0.0000000000e+00 0.0000000000e+00
3.3000000000e-01 0.0000000000e+00 0.0000000000e+00
3.4000000000e-01 0.0000000000e+00 0.0000000000e+00
3.5000000000e-01 0.0000000000e+00 0.0000000000e+00
3.6000000000e-01 0.0000000000e+00 0.0000000000e+00
3.7000000000e-01 0.0000000000e+00 0.0000000000e+00
3.8000000000e-01 0.0000000000e+00 0.0000000000e+00
3.9000000000e-01 0.0000000000e+00 0.0000000000e+00
4.0000000000e-01 0.0000000000e+00 0.0000000000e+00
4.1000000000e-01 0.0000000000e+00 0.0000000000e+00
4.2000000000e-01 0.0000000000e+00 0.0000000000e+00
4.3000000000e-01 0.0000000000e+00 0.0000000000e+00
4.4000000000e-01 0.0000000000e+00 0.0000000000e+00
4.5000000000e-01 0.0000000000e+00 0.0000000000e+00
4.6000000000e-01 0.0000000000e+00 0.0000000000e+00
4.7000000000e-01 0.0000000000e+00 0.0000000000e+00
4.8000000000e-01 0.0000000000e+00 0.0000000000e+00
4.9000000000e-01 0.0000000000e+00 0.0000000000e+00
5.0000000000e-01 0.0000000000e+00 0.0000000000e+00
5.1000000000e-01 0.0000000000e+00 0.0000000000e+00
5.2000000000e-01 0.0000000000e+00 0.0000000000e+00
5.3000000000e-01 0.0000000000e+00 0.0000000000e+00
5.4000000000e-01 0.0000000000e+00 0.0000000000e+00
5.5000000000e-01 0.0000000000e+00 0.0000000000e+00
5.6000000000e-01 0.0000000000e+00 0.0000000000e+00
5.7000000000e-01 0.0000000000e+00 0.0000000000e+00
5.8000000000e-01 0.0000000000e+00 0.0000000000e+00
5.9000000000e-01 0.0000000000e+00 0.0000000000e+00
6.0000000000e-01 0.0000000000e+00 0.0000000000e+00
6.1000000000e-01 0.0000000000e+00 0.0000000000e+00
6.2000000000e-01 0.0000000000e+00 0.0000000000e+00
6.3000000000e-01 0.0000000000e+00 0.0000000000e+00
6.4000000000e-01 0.0000000000e+00 0.0000000000e+00
6.5000000000e-01 0.0000000000e+00 0.0000000000e+00
6.6000000000e-01 0.0000000000e+00 0.0000000000e+00
6.7000000000e-01 0.0000000000e+00 0.0000000000e+00
6.8000000000e-01 0.0000000000e+00 0.0000000000e+00
6.9000000000e-01 0.0000000000e+00 0.0000000000e+00
7.0000000000e-01 0.0000000000e+00 0.0000000000e+00
7.1000000000e-01 0.0000000000e+00 0.0000000000e+00
7.2000000000e-01 0.0000000000e+00 0.0000000000e+00
7.3000000000e-01 0.0000000000e+00 0.0000000000e+00
7.4000000000e-01 0.0000000000e+00 0.0000000000e+00
7.5000000000e-01 0.0000000000e+00 0.0000000000e+00
7.6000000000e-01 0.0000000000e+00 0.0000000000e+00
7.7000000000e-01 0.0000000000e+00 0.0000000000e+00
7.8000000000e-01 0.0000000000e+00 0.0000000000e+00
7.9000000000e-01 0.0000000000e+00 0.0000000000e+00
8.0000000000e-01 0.0000000000e+00 0.0000000000e+00
8.1000000000e-01 0.0000000000e+00 0.0000000000e+00
8.2000000000e-01 0.0000000000e+00 0.0000000000e+00
8.3000000000e-01 0.0000000000e+00 0.0000000000e+00
8.4000000000e-01 0.0000000000e+00 0.0000000000e+00
8.5000000000e-01 0.0000000000e+00 0.0000000000e+00
8.6000000000e-01 0.0000000000e+00 0.0000000000e+00
8.7000000000e-01 0.0000000000e+00 0.0000000000e+00
8.8000000000e-01 0.0000000000e+00 0.0000000000e+00
8.9000000000e-01 0.0000000000e+00 0.0000000000e+00
9.0000000000e-01 0.0000000000e+00 0.0000000000e+00
9.1000000000e-01 0.0000000000e+00 0.0000000000e+00
9.2000000000e-01 0.0000000000e+00 0.0000000000e+00
9.3000000000e-01 0.0000000000e+00 0.0000000000e+00
9.4000000000e-01 0.0000000000e+00 0.0000000000e+00
9.5000000000e-01 0.0000000000e+00 0.0000000000e+00
9.6000000000e-01 0.0000000000e+00 0.0000000000e+00
9.7000000000e-01 0.0000000000e+00 0.0000000000e+00
9.8000000000e-01 0.0000000000e+00 0.0000000000e+00
9.9000000000e-01 0.0000000000e+00 0.0000000000e+00
1.0000000000e+00 0.0000000000e+00 0.0000000000e+00
0.0000000000e+00 1.0000000000e-02 0.0000000000e+00
1.0000000000e-02 1.0000000000e-02 0.0000000000e+00
2.0000000000e-02 1.0000000000e-02 0.0000000000e+00
3.0000000000e-02 1.0000000000e-02 0.0000000000e+00
4.0000000000e-02 1.0000000000e-02 0.0000000000e+00
5.0000000000e-02 1.0000000000e-02 0.0000000000e+00
6.0000000000e-02 1.0000000000e-02 0.0000000000e+00
7.0000000000e-02 1.0000000000e-02 0.0000000000e+00
8.0000000000e-02 1.0000000000e-02 0.0000000000e+00
9.0000000000e-02 1.0000000000e-02 0.0000000000e+00
1.0000000000e-01 1.0000000000e-02 0.0000000000e+00
1.1000000000e-01 1.0000000000e-02 0.0000000000e+00
1.2000000000e-01 1.0000000000e-02 0.0000000000e+00
1.3000000000e-01 1.0000000000e-02 0.0000000000e+00
1.4000000000e-01 1.0000000000e-02 0.0000000000e+00
1.5000000000e-01 1.0000000000e-02 0.0000000000e+00
1.6000000000e-01 1.0000000000e-02 0.0000000000e+00
1.7000000000e-01 1.0000000000e-02 0.0000000000e+00
1.8000000000e-01 1.0000000000e-02 0.0000000000e+00
1.9000000000e-01 1.0000000000e-02 0.0000000000e+00
2.0000000000e-01 1.0000000000e-02 0.0000000000e+00
2.1000000000e-01 1.0000000000e-02 0.0000000000e+00
2.2000000000e-01 1.0000000000e-02 0.0000000000e+00
2.3000000000e-01 1.0000000000e-02 0.0000000000e+00
2.4000000000e-01 1.0000000000e-02 0.0000000000e+00
2.5000000000e-01 1.0000000000e-02 0.0000000000e+00
2.6000000000e-01 1.0000000000e-02 0.0000000000e+00
2.7000000000e-01 1.0000000000e-02 0.0000000000e+00
2.8000000000e-01 1.0000000000e-02 0.0000000000e+00
2.9000000000e-01 1.0000000000e-02 0.0000000000e+00
3.0000000000e-01 1.0000000000e-02 0.0000000000e+00
3.1000000000e-01 1.0000000000e-02 0.0000000000e+00
3.2000000000e-01 1.0000000000e-02 0.0000000000e+00
3.3000000000e-01 1.0000000000e-02 0.0000000000e+00
3.4000000000e-01 1.0000000000e-02 0.0000000000e+00
3.5000000000e-01 1.0000000000e-02 0.0000000000e+00
3.6000000000e-01 1.0000000000e-02 0.0000000000e+00
3.7000000000e-01 1.0000000000e-02 0.0000000000e+00
3.8000000000e-01 1.0000000000e-02 0.0000000000e+00
3.9000000000e-01 1.0000000000e-02 0.0000000000e+00
4.0000000000e-01 1.0000000000e-02 0.0000000000e+00
4.1000000000e-01 1.0000000000e-02 0.0000000000e+00
4.2000000000e-01 1.0000000000e-02 0.0000000000e+00
4.3000000000e-01 1.0000000000e-02 0.0000000000e+00
4.4000000000e-01 1.0000000000e-02 0.0000000000e+00
4.5000000000e-01 1.0000000000e-02 0.0000000000e+00
4.6000000000e-01 1.0000000000e-02 0.0000000000e+00
4.7000000000e-01 1.0000000000e-02 0.0000000000e+00
4.8000000000e-01 1.0000000000e-02 0.0000000000e+00
4.9000000000e-01 1.0000000000e-02 0.0000000000e+00
5.0000000000e-01 1.0000000000e-02 0.0000000000e+00
5.1000000000e-01 1.0000000000e-02 0.0000000000e+00
5.2000000000e-01 1.0000000000e-02 0.0000000000e+00
5.3000000000e-01 1.0000000000e-02 0.0000000000e+00
5.4000000000e-01 1.0000000000e-02 0.0000000000e+00
5.5000000000e-01 1.0000000000e-02 0.0000000000e+00
5.6000000000e-01 1.0000000000e-02 0.0000000000e+00
5.7000000000e-01 1.0000000000e-02 0.0000000000e+00
5.8000000000e-01 1.0000000000e-02 0.0000000000e+00
5.9000000000e-01 1.0000000000e-02 0.0000000000e+00
6.0000000000e-01 1.0000000000e-02 0.0000000000e+00
6.1000000000e-01 1.0000000000e-02 0.0000000000e+00
6.2000000000e-01 1.0000000000e-02 0.0000000000e+00
6.3000000000e-01 1.0000000000e-02 0.0000000000e+00
6.4000000000e-01 1.0000000000e-02 0.0000000000e+00
6.5000000000e-01 1.0000000000e-02 0.0000000000e+00
6.6000000000e-01 1.0000000000e-02 0.0000000000e+00
6.7000000000e-01 1.0000000000e-02 0.0000000000e+00
6.8000000000e-01 1.0000000000e-02 0.0000000000e+00
6.9000000000e-01 1.0000000000e-02 0.0000000000e+00
7.0000000000e-01 1.0000000000e-02 0.0000000000e+00
7.1000000000e-01 1.0000000000e-02 0.0000000000e+00
7.2000000000e-01 1.0000000000e-02 0.0000000000e+00
7.3000000000e-01 1.0000000000e-02 0.0000000000e+00
7.4000000000e-01 1.0000000000e-02 0.0000000000e+00
7.5000000000e-01 1.0000000000e-02 0.0000000000e+00
7.6000000000e-01 1.0000000000e-02 0.0000000000e+00
7.7000000000e-01 1.0000000000e-02 0.0000000000e+00
7.8000000000e-01 1.0000000000e-02 0.0000000000e+00
7.9000000000e-01 1.0000000000e-02 0.0000000000e+00
8.0000000000e-01 1.0000000000e-02 0.0000000000e+00
8.1000000000e-01 1.0000000000e-02 0.0000000000e+00
8.2000000000e-01 1.0000000000e-02 0.0000000000e+00
8.3000000000e-01 1.0000000000e-02 0.0000000000e+00
8.4000000000e-01 1.0000000000e-02 0.0000000000e+00
8.5000000000e-01 1.0000000000e-02 0.0000000000e+00
8.6000000000e-01 1.0000000000e-02 0.0000000000e+00
8.7000000000e-01 1.0000000000e-02 0.0000000000e+00
8.8000000000e-01 1.0000000000e-02 0.0000000000e+00
8.9000000000e-01 1.0000000000e-02 0.0000000000e+00
9.0000000000e-01 1.0000000000e-02 0.0000000000e+00
9.1000000000e-01 1.0000000000e-02 0.0000000000e+00
9.2000000000e-01 1.0000000000e-02 0.0000000000e+00
[...]
CELL_DATA 10000

SCALARS massDensity float
LOOKUP_TABLE default
1.1984271302e+00
1.1984737085e+00
1.1985425660e+00
1.1986461783e+00
1.1987824610e+00
1.1989488077e+00
1.1991421773e+00
1.1993591668e+00
1.1995961052e+00
1.1998491394e+00
1.2001143377e+00
1.2003877787e+00
1.2006656495e+00
1.2009443216e+00
1.2012204317e+00
1.2014909347e+00
1.2017531574e+00
1.2020048235e+00
1.2022440784e+00
1.2024694863e+00
1.2026800276e+00
1.2028750723e+00
1.2030543568e+00
1.2032179403e+00
1.2033661680e+00
1.2034996194e+00
1.2036190658e+00
1.2037254175e+00
1.2038196829e+00
1.2039029210e+00
1.2039762074e+00
1.2040405959e+00
1.2040970951e+00
1.2041466418e+00
1.2041900891e+00
1.2042281918e+00
1.2042616062e+00
1.2042908860e+00
1.2043164911e+00
1.2043387926e+00
1.2043580869e+00
1.2043746054e+00
1.2043885315e+00
1.2044000110e+00
1.2044091681e+00
1.2044161141e+00
1.2044209593e+00
1.2044238182e+00
1.2044248164e+00
1.2044240912e+00
1.2044217945e+00
1.2044180893e+00
1.2044131492e+00
1.2044071529e+00
1.2044002818e+00
1.2043927142e+00
1.2043846227e+00
1.2043761694e+00
1.2043675038e+00
1.2043587599e+00
1.2043500557e+00
1.2043414915e+00
1.2043331508e+00
1.2043251006e+00
1.2043173924e+00
1.2043100637e+00
1.2043031398e+00
1.2042966350e+00
1.2042905549e+00
1.2042848974e+00
1.2042796547e+00
1.2042748146e+00
1.2042703610e+00
1.2042662759e+00
1.2042625394e+00
1.2042591310e+00
1.2042560293e+00
1.2042532133e+00
1.2042506621e+00
1.2042483556e+00
1.2042462739e+00
1.2042443988e+00
1.2042427126e+00
1.2042411999e+00
1.2042398467e+00
1.2042386421e+00
1.2042375779e+00
1.2042366509e+00
1.2042358626e+00
1.2042352219e+00
1.2042347454e+00
1.2042344609e+00
1.2042344081e+00
1.2042346438e+00
1.2042352444e+00
1.2042363137e+00
1.2042379875e+00
1.2042404389e+00
1.2042438620e+00
1.2042305148e+00
1.1984737085e+00
1.1985227264e+00
1.1985925157e+00
1.1986963647e+00
1.1988323697e+00
1.1989980581e+00
1.1991904751e+00
1.1994062884e+00
1.1996418725e+00
1.1998934204e+00
1.2001570303e+00
1.2004288158e+00
1.2007049859e+00
1.2009819409e+00
1.2012563332e+00
1.2015251398e+00
1.2017856971e+00
1.2020357439e+00
1.2022734282e+00
1.2024973214e+00
1.2027063988e+00
1.2029000293e+00
1.2030779365e+00
1.2032401703e+00
1.2033870561e+00
1.2035191570e+00
1.2036372192e+00
1.2037421322e+00
1.2038348773e+00
1.2039164925e+00
1.2039880288e+00
1.2040505239e+00
1.2041049705e+00
1.2041523002e+00
1.2041933637e+00
1.2042289267e+00
1.2042596607e+00
1.2042861485e+00
1.2043088838e+00
1.2043282833e+00
1.2043446919e+00
1.2043583981e+00
1.2043696414e+00
1.2043786272e+00
1.2043855335e+00
1.2043905236e+00
1.2043937498e+00
1.2043953623e+00
1.2043955092e+00
1.2043943421e+00
1.2043920130e+00
1.2043886763e+00
1.2043844848e+00
1.2043795894e+00
1.2043741350e+00
1.2043682595e+00
1.2043620903e+00
1.2043557439e+00
1.2043493234e+00
1.2043429191e+00
1.2043366071e+00
1.2043304507e+00
1.2043245003e+00
1.2043187947e+00
1.2043133622e+00
1.2043082219e+00
1.2043033850e+00
1.2042988560e+00
1.2042946341e+00
1.2042907141e+00
1.2042870875e+00
1.2042837434e+00
1.2042806689e+00
1.2042778501e+00
1.2042752725e+00
1.2042729209e+00
1.2042707804e+00
1.2042688362e+00
1.2042670741e+00
1.2042654798e+00
1.2042640406e+00
1.2042627437e+00
1.2042615780e+00
1.2042605331e+00
1.2042596007e+00
1.2042587734e+00
1.2042580471e+00
1.2042574196e+00
1.2042568927e+00
1.2042564716e+00
1.2042561670e+00
1.2042559944e+00
1.2042559761e+00
1.2042561407e+00
1.2042565245e+00
1.2042571689e+00
1.2042581174e+00
1.2042594017e+00
1.2042610105e+00
1.2042442313e+00
1.1985425660e+00
1.1985925157e+00
1.1986619821e+00
1.1987649021e+00
1.1988994587e+00
1.1990632486e+00
1.1992533899e+00
1.1994666049e+00
1.1996993323e+00
1.1999478126e+00
1.2002082044e+00
1.2004766655e+00
1.2007494611e+00
1.2010230307e+00
1.2012940769e+00
1.2015596092e+00
1.2018170057e+00
1.2020640292e+00
1.2022988596e+00
1.2025200829e+00
1.2027266957e+00
1.2029180726e+00
1.2030939481e+00
1.2032543688e+00
1.2033996617e+00
1.2035303787e+00
1.2036472592e+00
1.2037511745e+00
1.2038430921e+00
1.2039240265e+00
1.2039950096e+00
1.2040570525e+00
1.2041111260e+00
1.2041581344e+00
1.2041989072e+00
1.2042341855e+00
1.2042646236e+00
1.2042907854e+00
1.2043131544e+00
1.2043321370e+00
1.2043480767e+00
1.2043612611e+00
1.2043719369e+00
1.2043803168e+00
1.2043865930e+00
1.2043909416e+00
1.2043935323e+00
1.2043945296e+00
1.2043940985e+00
1.2043924028e+00
1.2043896073e+00
1.2043858738e+00
1.2043813619e+00
1.2043762241e+00
1.2043706057e+00
1.2043646406e+00
1.2043584516e+00
1.2043521475e+00
1.2043458236e+00
1.2043395608e+00
1.2043334264e+00
1.2043274743e+00
1.2043217469e+00
1.2043162750e+00
1.2043110807e+00
1.2043061773e+00
1.2043015716e+00
1.2042972646e+00
1.2042932530e+00
1.2042895298e+00
1.2042860856e+00
1.2042829090e+00
1.2042799870e+00
1.2042773063e+00
1.2042748526e+00
1.2042726119e+00
1.2042705699e+00
1.2042687131e+00
1.2042670278e+00
1.2042655014e+00
1.2042641218e+00
1.2042628777e+00
1.2042617588e+00
1.2042607562e+00
1.2042598620e+00
1.2042590702e+00
1.2042583767e+00
1.2042577799e+00
1.2042572804e+00
1.2042568824e+00
1.2042565930e+00
1.2042564232e+00
1.2042563869e+00
1.2042565012e+00
1.2042567834e+00
1.2042572488e+00
1.2042579005e+00
1.2042587161e+00
1.2042596144e+00
1.2042411060e+00
1.1986461783e+00
1.1986963647e+00
1.1987649021e+00
1.1988661978e+00
1.1989984720e+00
1.1991593885e+00
1.1993461275e+00
1.1995554914e+00
1.1997839856e+00
1.2000279349e+00
1.2002835645e+00
1.2005471150e+00
1.2008149142e+00
1.2010834783e+00
1.2013495642e+00
1.2016102474e+00
1.2018629486e+00
1.2021054826e+00
1.2023360586e+00
1.2025532990e+00
1.2027562159e+00
1.2029442049e+00
1.2031170025e+00
1.2032746627e+00
1.2034175026e+00
1.2035460692e+00
1.2036610823e+00
1.2037633988e+00
1.2038539590e+00
1.2039337553e+00
1.2040037882e+00
1.2040650423e+00
1.2041184548e+00
1.2041649030e+00
1.2042051845e+00
1.2042400159e+00
1.2042700248e+00
1.2042957568e+00
1.2043176770e+00
1.2043361823e+00
1.2043516074e+00
1.2043642400e+00
1.2043743276e+00
1.2043820918e+00
1.2043877332e+00
1.2043914422e+00
1.2043934010e+00
1.2043937903e+00
1.2043927879e+00
1.2043905715e+00
1.2043873155e+00
1.2043831910e+00
1.2043783619e+00
1.2043729838e+00
1.2043672007e+00
1.2043611444e+00
1.2043549316e+00
1.2043486648e+00
1.2043424309e+00
1.2043363022e+00
1.2043303368e+00
1.2043245804e+00
1.2043190666e+00
1.2043138194e+00
1.2043088540e+00
1.2043041786e+00
1.2042997954e+00
1.2042957022e+00
1.2042918932e+00
1.2042883597e+00
1.2042850913e+00
1.2042820761e+00
1.2042793013e+00
1.2042767536e+00
1.2042744196e+00
1.2042722858e+00
1.2042703390e+00
1.2042685663e+00
1.2042669554e+00
1.2042654944e+00
1.2042641723e+00
1.2042629786e+00
1.2042619043e+00
1.2042609407e+00
1.2042600813e+00
1.2042593200e+00
1.2042586532e+00
1.2042580786e+00
1.2042575963e+00
1.2042572081e+00
1.2042569186e+00
1.2042567333e+00
1.2042566599e+00
1.2042567052e+00
1.2042568741e+00
1.2042571641e+00
1.2042575592e+00
1.2042580169e+00
1.2042584498e+00
1.2042388252e+00
1.1987824610e+00
1.1988323697e+00
1.1988994587e+00
1.1989984720e+00
1.1991276715e+00
1.1992847740e+00
1.1994670425e+00
1.1996713557e+00
1.1998943195e+00
1.2001323434e+00
1.2003817586e+00
1.2006388906e+00
1.2009001698e+00
1.2011621899e+00
1.2014217996e+00
1.2016761387e+00
1.2019227036e+00
1.2021593567e+00
1.2023843630e+00
1.2025963745e+00
1.2027944388e+00
1.2029779631e+00
1.2031467005e+00
1.2033007002e+00
1.2034402794e+00
1.2035659671e+00
1.2036784696e+00
1.2037786152e+00
1.2038673211e+00
1.2039455443e+00
1.2040142553e+00
1.2040743999e+00
1.2041268832e+00
1.2041725437e+00
1.2042121480e+00
1.2042463781e+00
1.2042758359e+00
1.2043010400e+00
1.2043224376e+00
1.2043404085e+00
1.2043552797e+00
1.2043673324e+00
1.2043768162e+00
1.2043839555e+00
1.2043889606e+00
1.2043920313e+00
1.2043933639e+00
1.2043931511e+00
1.2043915849e+00
1.2043888538e+00
1.2043851434e+00
1.2043806315e+00
1.2043754878e+00
1.2043698694e+00
1.2043639207e+00
1.2043577695e+00
1.2043515284e+00
1.2043452926e+00
1.2043391415e+00
1.2043331386e+00
1.2043273338e+00
1.2043217637e+00
1.2043164545e+00
1.2043114226e+00
1.2043066772e+00
1.2043022211e+00
1.2042980523e+00
1.2042941652e+00
1.2042905515e+00
1.2042872010e+00
1.2042841023e+00
1.2042812429e+00
1.2042786101e+00
1.2042761910e+00
1.2042739725e+00
1.2042719421e+00
1.2042700873e+00
1.2042683960e+00
1.2042668569e+00
1.2042654590e+00
1.2042641920e+00
1.2042630466e+00
1.2042620141e+00
1.2042610869e+00
1.2042602584e+00
1.2042595235e+00
1.2042588778e+00
1.2042583190e+00
1.2042578456e+00
1.2042574582e+00
1.2042571578e+00
1.2042569467e+00
1.2042568266e+00
1.2042567980e+00
1.2042568569e+00
1.2042569926e+00
1.2042571807e+00
1.2042573777e+00
1.2042575098e+00
1.2042371493e+00
1.1989488077e+00
1.1989980581e+00
1.1990632486e+00
1.1991593885e+00
1.1992847740e+00
1.1994371959e+00
1.1996139926e+00
1.1998121505e+00
1.2000283715e+00
1.2002591884e+00
1.2005010357e+00
1.2007503647e+00
1.2010037055e+00
1.2012577694e+00
1.2015094926e+00
1.2017561158e+00
1.2019952042e+00
1.2022246993e+00
1.2024429131e+00
1.2026485520e+00
1.2028406883e+00
1.2030187595e+00
1.2031825229e+00
1.2033320361e+00
1.2034676029e+00
1.2035897431e+00
1.2036991356e+00
1.2037965861e+00
1.2038829744e+00
1.2039592259e+00
1.2040262681e+00
1.2040850107e+00
1.2041363142e+00
1.2041809803e+00
1.2042197340e+00
1.2042532244e+00
1.2042820177e+00
1.2043066072e+00
1.2043274141e+00
1.2043448023e+00
1.2043590840e+00
1.2043705350e+00
1.2043794010e+00
1.2043859104e+00
1.2043902782e+00
1.2043927149e+00
1.2043934264e+00
1.2043926188e+00
1.2043904951e+00
1.2043872559e+00
1.2043830953e+00
1.2043781994e+00
1.2043727419e+00
1.2043668829e+00
1.2043607654e+00
1.2043545154e+00
1.2043482399e+00
1.2043420281e+00
1.2043359516e+00
1.2043300661e+00
1.2043244124e+00
1.2043190196e+00
1.2043139055e+00
1.2043090800e+00
1.2043045458e+00
1.2043003006e+00
1.2042963382e+00
1.2042926498e+00
1.2042892246e+00
1.2042860509e+00
1.2042831160e+00
1.2042804073e+00
1.2042779119e+00
1.2042756171e+00
1.2042735106e+00
1.2042715801e+00
1.2042698143e+00
1.2042682017e+00
1.2042667320e+00
1.2042653948e+00
1.2042641809e+00
1.2042630814e+00
1.2042620885e+00
1.2042611949e+00
1.2042603945e+00
1.2042596820e+00
1.2042590532e+00
1.2042585049e+00
1.2042580350e+00
1.2042576418e+00
1.2042573247e+00
1.2042570825e+00
1.2042569135e+00
1.2042568134e+00
1.2042567741e+00
1.2042567806e+00
1.2042568082e+00
1.2042568182e+00
1.2042567551e+00
1.2042358900e+00
1.1991421773e+00
1.1991904751e+00
1.1992533899e+00
1.1993461275e+00
1.1994670425e+00
1.1996139926e+00
1.1997844216e+00
1.1999754151e+00
1.2001838080e+00
1.2004062494e+00
1.2006393177e+00
1.2008795831e+00
1.2011237170e+00
1.2013685402e+00
1.2016111158e+00
1.2018487759e+00
1.2020791896e+00
1.2023003661e+00
1.2025106937e+00
1.2027089207e+00
1.2028941671e+00
1.2030658869e+00
1.2032238587e+00
1.2033681344e+00
1.2034990164e+00
1.2036170007e+00
1.2037227472e+00
1.2038170247e+00
1.2039006814e+00
1.2039745977e+00
1.2040396621e+00
1.2040967354e+00
1.2041466367e+00
1.2041901199e+00
1.2042278707e+00
1.2042604950e+00
1.2042885262e+00
1.2043124228e+00
1.2043325821e+00
1.2043493447e+00
1.2043630094e+00
1.2043738402e+00
1.2043820802e+00
1.2043879563e+00
1.2043916897e+00
1.2043934967e+00
1.2043935945e+00
1.2043921988e+00
1.2043895248e+00
1.2043857827e+00
1.2043811764e+00
1.2043758982e+00
1.2043701273e+00
1.2043640253e+00
1.2043577357e+00
1.2043513811e+00
1.2043450646e+00
1.2043388688e+00
1.2043328584e+00
1.2043270807e+00
1.2043215689e+00
1.2043163436e+00
1.2043114154e+00
1.2043067871e+00
1.2043024554e+00
1.2042984129e+00
1.2042946493e+00
1.2042911525e+00
1.2042879094e+00
1.2042849065e+00
1.2042821303e+00
1.2042795674e+00
1.2042772050e+00
1.2042750308e+00
1.2042730326e+00
1.2042711992e+00
1.2042695195e+00
1.2042679833e+00
1.2042665805e+00
1.2042653021e+00
1.2042641391e+00
1.2042630835e+00
1.2042621279e+00
1.2042612656e+00
1.2042604905e+00
1.2042597976e+00
1.2042591823e+00
1.2042586410e+00
1.2042581705e+00
1.2042577683e+00
1.2042574314e+00
1.2042571572e+00
1.2042569408e+00
1.2042567761e+00
1.2042566525e+00
1.2042565546e+00
1.2042564595e+00
1.2042563362e+00
1.2042561436e+00
1.2042349156e+00
1.1993591668e+00
1.1994062884e+00
1.1994666049e+00
1.1995554914e+00
1.1996713557e+00
1.1998121505e+00
1.1999754151e+00
1.2001583692e+00
1.2003579700e+00
1.2005710220e+00
1.2007942370e+00
1.2010243454e+00
1.2012581482e+00
1.2014926167e+00
1.2017249279e+00
1.2019525432e+00
1.2021732215e+00
1.2023850726e+00
1.2025865464e+00
1.2027764596e+00
1.2029539649e+00
1.2031185537e+00
1.2032700102e+00
1.2034083964e+00
1.2035339977e+00
1.2036472979e+00
1.2037489230e+00
1.2038396129e+00
1.2039201704e+00
1.2039914364e+00
1.2040542479e+00
1.2041094213e+00
1.2041577227e+00
1.2041998616e+00
1.2042364741e+00
1.2042681262e+00
1.2042953089e+00
1.2043184488e+00
1.2043379115e+00
1.2043540158e+00
1.2043670407e+00
1.2043772401e+00
1.2043848486e+00
1.2043900932e+00
1.2043931961e+00
1.2043943811e+00
1.2043938725e+00
1.2043918971e+00
1.2043886792e+00
1.2043844400e+00
1.2043793910e+00
1.2043737323e+00
1.2043676468e+00
1.2043612993e+00
1.2043548323e+00
1.2043483670e+00
1.2043420014e+00
1.2043358130e+00
1.2043298589e+00
1.2043241795e+00
1.2043187995e+00
1.2043137320e+00
1.2043089800e+00
1.2043045398e+00
1.2043004020e+00
1.2042965543e+00
1.2042929821e+00
1.2042896702e+00
1.2042866030e+00
1.2042837654e+00
1.2042811427e+00
1.2042787213e+00
1.2042764880e+00
1.2042744306e+00
1.2042725377e+00
1.2042707984e+00
1.2042692024e+00
1.2042677401e+00
1.2042664025e+00
1.2042651806e+00
1.2042640668e+00
1.2042630532e+00
1.2042621331e+00
1.2042613000e+00
1.2042605483e+00
1.2042598725e+00
1.2042592684e+00
1.2042587316e+00
1.2042582586e+00
1.2042578454e+00
1.2042574886e+00
1.2042571833e+00
1.2042569241e+00
1.2042567028e+00
1.2042565092e+00
1.2042563281e+00
1.2042561404e+00
1.2042559209e+00
1.2042556407e+00
1.2042341384e+00
1.1995961052e+00
1.1996418725e+00
1.1996993323e+00
1.1997839856e+00
1.1998943195e+00
1.2000283715e+00
1.2001838080e+00
1.2003579700e+00
1.2005479738e+00
1.2007507652e+00
1.2009632296e+00
1.2011822425e+00
1.2014047752e+00
1.2016279337e+00
1.2018490477e+00
1.2020656911e+00
1.2022757480e+00
1.2024774113e+00
1.2026692224e+00
1.2028500495e+00
1.2030191020e+00
1.2031758918e+00
1.2033202277e+00
1.2034521652e+00
1.2035719874e+00
1.2036801500e+00
1.2037772557e+00
1.2038640013e+00
1.2039411522e+00
1.2040094965e+00
1.2040698258e+00
1.2041229003e+00
1.2041694380e+00
1.2042100935e+00
1.2042454573e+00
1.2042760462e+00
1.2043023122e+00
1.2043246420e+00
1.2043433717e+00
1.2043587918e+00
1.2043711635e+00
1.2043807243e+00
1.2043877021e+00
1.2043923189e+00
1.2043947994e+00
1.2043953707e+00
1.2043942656e+00
1.2043917186e+00
1.2043879646e+00
1.2043832331e+00
1.2043777448e+00
1.2043717057e+00
1.2043653043e+00
1.2043587070e+00
1.2043520571e+00
1.2043454732e+00
1.2043390501e+00
1.2043328591e+00
1.2043269515e+00
1.2043213596e+00
1.2043161011e+00
1.2043111811e+00
1.2043065957e+00
1.2043023343e+00
1.2042983820e+00
1.2042947211e+00
1.2042913332e+00
1.2042881997e+00
1.2042853026e+00
1.2042826250e+00
1.2042801512e+00
1.2042778670e+00
1.2042757590e+00
1.2042738154e+00
1.2042720248e+00
1.2042703771e+00
1.2042688625e+00
1.2042674721e+00
1.2042661975e+00
1.2042650307e+00
1.2042639642e+00
1.2042629912e+00
1.2042621049e+00
1.2042612995e+00
1.2042605693e+00
1.2042599093e+00
1.2042593147e+00
1.2042587812e+00
1.2042583045e+00
1.2042578804e+00
1.2042575042e+00
1.2042571709e+00
1.2042568737e+00
1.2042566049e+00
1.2042563538e+00
1.2042561075e+00
1.2042558494e+00
1.2042555607e+00
1.2042552194e+00
1.2042335015e+00
1.1998491394e+00
1.1998934204e+00
1.1999478126e+00
1.2000279349e+00
1.2001323434e+00
1.2002591884e+00
1.2004062494e+00
1.2005710220e+00
1.2007507652e+00
1.2009426042e+00
1.2011435791e+00
1.2013507507e+00
1.2015612413e+00
1.2017723303e+00
1.2019814807e+00
1.2021864152e+00
1.2023851231e+00
1.2025759126e+00
1.2027573973e+00
1.2029285235e+00
1.2030885388e+00
1.2032369976e+00
1.2033737154e+00
1.2034987586e+00
1.2036123913e+00
1.2037150545e+00
1.2038073127e+00
1.2038898295e+00
1.2039633193e+00
1.2040285258e+00
1.2040861829e+00
1.2041370008e+00
1.2041816391e+00
1.2042207026e+00
1.2042547267e+00
1.2042841836e+00
1.2043094778e+00
1.2043309597e+00
1.2043489288e+00
1.2043636501e+00
1.2043753604e+00
1.2043842832e+00
1.2043906344e+00
1.2043946326e+00
1.2043965004e+00
1.2043964697e+00
1.2043947782e+00
1.2043916695e+00
1.2043873865e+00
1.2043821683e+00
1.2043762430e+00
1.2043698240e+00
1.2043631037e+00
1.2043562519e+00
1.2043494120e+00
1.2043427013e+00
1.2043362107e+00
1.2043300069e+00
1.2043241345e+00
1.2043186192e+00
1.2043134711e+00
1.2043086882e+00
1.2043042594e+00
1.2043001676e+00
1.2042963920e+00
1.2042929102e+00
1.2042896995e+00
1.2042867380e+00
1.2042840053e+00
1.2042814828e+00
1.2042791536e+00
1.2042770027e+00
1.2042750168e+00
1.2042731837e+00
1.2042714929e+00
1.2042699343e+00
1.2042684991e+00
1.2042671788e+00
1.2042659657e+00
1.2042648522e+00
1.2042638318e+00
1.2042628978e+00
1.2042620442e+00
1.2042612651e+00
1.2042605554e+00
1.2042599099e+00
1.2042593241e+00
1.2042587932e+00
1.2042583129e+00
1.2042578784e+00
1.2042574850e+00
1.2042571267e+00
1.2042567974e+00
1.2042564888e+00
1.2042561917e+00
1.2042558942e+00
1.2042555834e+00
1.2042552438e+00
1.2042548599e+00
1.2042329665e+00
1.2001143377e+00
1.2001570303e+00
1.2002082044e+00
1.2002835645e+00
1.2003817586e+00
1.2005010357e+00
1.2006393177e+00
1.2007942370e+00
1.2009632296e+00
1.2011435791e+00
1.2013325186e+00
1.2015272711e+00
1.2017251483e+00
1.2019235805e+00
1.2021202002e+00
1.2023128562e+00
1.2024996763e+00
1.2026790621e+00
1.2028497283e+00
1.2030106787e+00
1.2031612234e+00
1.2033009397e+00
1.2034296699e+00
1.2035474734e+00
1.2036546112e+00
1.2037514937e+00
1.2038386597e+00
1.2039167257e+00
1.2039863650e+00
1.2040482643e+00
1.2041031080e+00
1.2041515458e+00
1.2041941852e+00
1.2042315718e+00
1.2042641918e+00
1.2042924639e+00
1.2043167503e+00
1.2043373573e+00
1.2043545517e+00
1.2043685664e+00
1.2043796165e+00
1.2043879062e+00
1.2043936413e+00
1.2043970322e+00
1.2043983013e+00
1.2043976812e+00
1.2043954161e+00
1.2043917557e+00
1.2043869520e+00
1.2043812520e+00
1.2043748924e+00
1.2043680924e+00
1.2043610503e+00
1.2043539381e+00
1.2043469005e+00
1.2043400533e+00
1.2043334846e+00
1.2043272564e+00
1.2043214075e+00
1.2043159570e+00
1.2043109079e+00
1.2043062510e+00
1.2043019684e+00
1.2042980366e+00
1.2042944292e+00
1.2042911186e+00
1.2042880781e+00
1.2042852825e+00
1.2042827089e+00
1.2042803366e+00
1.2042781478e+00
1.2042761267e+00
1.2042742595e+00
1.2042725345e+00
1.2042709409e+00
1.2042694695e+00
1.2042681117e+00
1.2042668598e+00
1.2042657066e+00
1.2042646454e+00
1.2042636697e+00
1.2042627737e+00
1.2042619516e+00
1.2042611981e+00
1.2042605080e+00
1.2042598767e+00
1.2042592991e+00
1.2042587710e+00
1.2042582875e+00
1.2042578441e+00
1.2042574354e+00
1.2042570562e+00
1.2042566997e+00
1.2042563589e+00
1.2042560247e+00
1.2042556879e+00
1.2042553370e+00
1.2042549606e+00
1.2042545463e+00
1.2042325069e+00
1.2003877787e+00
1.2004288158e+00
1.2004766655e+00
1.2005471150e+00
1.2006388906e+00
1.2007503647e+00
1.2008795831e+00
1.2010243454e+00
1.2011822425e+00
1.2013507507e+00
1.2015272711e+00
1.2017092255e+00
1.2018940892e+00
1.2020794789e+00
1.2022631711e+00
1.2024431743e+00
1.2026177301e+00
1.2027853635e+00
1.2029448673e+00
1.2030953289e+00
1.2032360995e+00
1.2033668013e+00
1.2034872844e+00
1.2035976192e+00
1.2036980466e+00
1.2037889613e+00
1.2038708614e+00
1.2039443283e+00
1.2040099815e+00
1.2040684606e+00
1.2041203897e+00
1.2041663657e+00
1.2042069349e+00
1.2042425907e+00
1.2042737614e+00
1.2043008184e+00
1.2043240737e+00
1.2043437947e+00
1.2043602087e+00
1.2043735199e+00
1.2043839165e+00
1.2043915857e+00
1.2043967182e+00
1.2043995184e+00
1.2044002042e+00
1.2043990107e+00
1.2043961852e+00
1.2043919848e+00
1.2043866686e+00
1.2043804924e+00
1.2043737000e+00
1.2043665183e+00
1.2043591499e+00
1.2043517708e+00
1.2043445265e+00
1.2043375325e+00
1.2043308740e+00
1.2043246090e+00
1.2043187709e+00
1.2043133726e+00
1.2043084102e+00
1.2043038679e+00
1.2042997208e+00
1.2042959393e+00
1.2042924911e+00
1.2042893439e+00
1.2042864667e+00
1.2042838309e+00
1.2042814109e+00
1.2042791844e+00
1.2042771320e+00
1.2042752372e+00