# vtk DataFile Version 2.0
Blank
ASCII
DATASET STRUCTURED_GRID
DIMENSIONS 101 101 2
POINTS 20402 float
0.0000000000e+00 0.0000000000e+00 0.0000000000e+00
1.0000000000e-02 0.0000000000e+00 0.0000000000e+00
2.0000000000e-02 0.0000000000e+00 0.0000000000e+00
3.0000000000e-02 0.0000000000e+00 0.0000000000e+00
4.0000000000e-02 0.0000000000e+00 0.0000000000e+00
5.0000000000e-02 0.0000000000e+00 0.0000000000e+00
6.0000000000e-02 0.0000000000e+00 0.0000000000e+00
7.0000000000e-02 0.0000000000e+00 0.0000000000e+00
8.0000000000e-02 0.0000000000e+00 0.0000000000e+00
9.0000000000e-02 0.0000000000e+00 0.0000000000e+00
1.0000000000e-01 0.0000000000e+00 0.0000000000e+00
1.1000000000e-01 0.0000000000e+00 0.0000000000e+00
1.2000000000e-01 0.0000000000e+00 0.0000000000e+00
1.3000000000e-01 0.0000000000e+00 0.0000000000e+00
1.4000000000e-01 0.0000000000e+00 0.0000000000e+00
1.5000000000e-01 0.0000000000e+00 0.0000000000e+00
1.6000000000e-01 0.0000000000e+00 0.0000000000e+00
1.7000000000e-01 0.0000000000e+00 0.0000000000e+00
1.8000000000e-01 0.0000000000e+00 0.0000000000e+00
1.9000000000e-01 0.0000000000e+00 0.0000000000e+00
2.0000000000e-01 0.0000000000e+00 0.0000000000e+00
2.1000000000e-01 0.0000000000e+00 0.0000000000e+00
2.2000000000e-01 0.0000000000e+00 0.0000000000e+00
2.3000000000e-01 0.0000000000e+00 0.0000000000e+00
2.4000000000e-01 0.0000000000e+00 0.0000000000e+00
2.5000000000e-01 0.0000000000e+00 0.0000000000e+00
2.6000000000e-01 0.0000000000e+00 0.0000000000e+00
2.7000000000e-01 0.0000000000e+00 0.0000000000e+00
2.8000000000e-01 0.0000000000e+00 0.0000000000e+00
2.9000000000e-01 0.0000000000e+00 0.0000000000e+00
3.0000000000e-01 0.0000000000e+00 0.0000000000e+00
3.1000000000e-01 0.0000000000e+00 0.0000000000e+00
3.2000000000e-01 0.0000000000e+00 0.0000000000e+00
3.3000000000e-01 0.0000000000e+00 0.0000000000e+00
3.4000000000e-01 0.0000000000e+00 0.0000000000e+00
3.5000000000e-01 0.0000000000e+00 0.0000000000e+00
3.6000000000e-01 0.0000000000e+00 0.0000000000e+00
3.7000000000e-01 0.0000000000e+00 0.0000000000e+00
3.8000000000e-01 0.0000000000e+00 0.0000000000e+00
3.9000000000e-01 0.0000000000e+00 0.0000000000e+00
4.0000000000e-01 0.0000000000e+00 0.0000000000e+00
4.1000000000e-01 0.0000000000e+00 0.0000000000e+00
4.2000000000e-01 0.0000000000e+00 0.0000000000e+00
4.3000000000e-01 0.0000000000e+00 0.0000000000e+00
4.4000000000e-01 0.0000000000e+00 0.0000000000e+00
4.5000000000e-01 0.0000000000e+00 0.0000000000e+00
4.6000000000e-01 0.0000000000e+00 0.0000000000e+00
4.7000000000e-01 0.0000000000e+00 0.0000000000e+00
4.8000000000e-01 0.0000000000e+00 0.0000000000e+00
4.9000000000e-01 0.0000000000e+00 0.0000000000e+00
5.0000000000e-01 0.0000000000e+00 0.0000000000e+00
5.1000000000e-01 0.0000000000e+00 0.0000000000e+00
5.2000000000e-01 0.0000000000e+00 0.0000000000e+00
5.3000000000e-01 0.0000000000e+00 0.0000000000e+00
5.4000000000e-01 0.0000000000e+00 0.0000000000e+00
5.5000000000e-01 0.0000000000e+00 0.0000000000e+00
5.6000000000e-01 0.0000000000e+00 0.0000000000e+00
5.7000000000e-01 0.0000000000e+00 0.0000000000e+00
5.8000000000e-01 0.0000000000e+00 0.0000000000e+00
5.9000000000e-01 0.0000000000e+00 0.0000000000e+00
6.0000000000e-01 0.0000000000e+00 0.0000000000e+00
6.1000000000e-01 0.0000000000e+00 0.0000000000e+00
6.2000000000e-01 0.0000000000e+00 0.0000000000e+00
6.3000000000e-01 0.0000000000e+00 0.0000000000e+00
6.4000000000e-01 0.0000000000e+00 0.0000000000e+00
6.5000000000e-01 0.0000000000e+00 0.0000000000e+00
6.6000000000e-01 0.0000000000e+00 0.0000000000e+00
6.7000000000e-01 0.0000000000e+00 0.0000000000e+00
6.8000000000e-01 0.0000000000e+00 0.0000000000e+00
6.9000000000e-01 0.0000000000e+00 0.0000000000e+00
7.0000000000e-01 0.0000000000e+00 0.0000000000e+00
7.1000000000e-01 0.0000000000e+00 0.0000000000e+00
7.2000000000e-01 0.0000000000e+00 0.0000000000e+00
7.3000000000e-01 0.0000000000e+00 0.0000000000e+00
7.4000000000e-01 0.0000000000e+00 0.0000000000e+00
7.5000000000e-01 0.0000000000e+00 0.0000000000e+00
7.6000000000e-01 0.0000000000e+00 0.0000000000e+00
7.7000000000e-01 0.0000000000e+00 0.0000000000e+00
7.8000000000e-01 0.0000000000e+00 0.0000000000e+00
7.9000000000e-01 0.0000000000e+00 0.0000000000e+00
8.0000000000e-01 0.0000000000e+00 0.0000000000e+00
8.1000000000e-01 0.0000000000e+00 0.0000000000e+00
8.2000000000e-01 0.0000000000e+00 0.0000000000e+00
8.3000000000e-01 0.0000000000e+00 0.0000000000e+00
8.4000000000e-01 0.0000000000e+00 0.0000000000e+00
8.5000000000e-01 0.0000000000e+00 0.0000000000e+00
8.6000000000e-01 0.0000000000e+00 0.0000000000e+00
8.7000000000e-01 0.0000000000e+00 0.0000000000e+00
8.8000000000e-01 0.0000000000e+00 0.0000000000e+00
8.9000000000e-01 0.0000000000e+00 0.0000000000e+00
9.0000000000e-01 0.0000000000e+00 0.0000000000e+00
9.1000000000e-01 0.0000000000e+00 0.0000000000e+00
9.2000000000e-01 0.0000000000e+00 0.0000000000e+00
9.3000000000e-01 0.0000000000e+00 0.0000000000e+00
9.4000000000e-01 0.0000000000e+00 0.0000000000e+00
9.5000000000e-01 0.0000000000e+00 0.0000000000e+00
9.6000000000e-01 0.0000000000e+00 0.0000000000e+00
9.7000000000e-01 0.0000000000e+00 0.0000000000e+00
9.8000000000e-01 0.0000000000e+00 0.0000000000e+00
9.9000000000e-01 0.0000000000e+00 0.0000000000e+00
1.0000000000e+00 0.0000000000e+00 0.0000000000e+00
0.0000000000e+00 1.0000000000e-02 0.0000000000e+00
1.0000000000e-02 1.0000000000e-02 0.0000000000e+00
2.0000000000e-02 1.0000000000e-02 0.0000000000e+00
3.0000000000e-02 1.0000000000e-02 0.0000000000e+00
4.0000000000e-02 1.0000000000e-02 0.0000000000e+00
5.0000000000e-02 1.0000000000e-02 0.0000000000e+00
6.0000000000e-02 1.0000000000e-02 0.0000000000e+00
7.0000000000e-02 1.0000000000e-02 0.0000000000e+00
8.0000000000e-02 1.0000000000e-02 0.0000000000e+00
9.0000000000e-02 1.0000000000e-02 0.0000000000e+00
1.0000000000e-01 1.0000000000e-02 0.0000000000e+00
1.1000000000e-01 1.0000000000e-02 0.0000000000e+00
1.2000000000e-01 1.0000000000e-02 0.0000000000e+00
1.3000000000e-01 1.0000000000e-02 0.0000000000e+00
1.4000000000e-01 1.0000000000e-02 0.0000000000e+00
1.5000000000e-01 1.0000000000e-02 0.0000000000e+00
1.6000000000e-01 1.0000000000e-02 0.0000000000e+00
1.7000000000e-01 1.0000000000e-02 0.0000000000e+00
1.8000000000e-01 1.0000000000e-02 0.0000000000e+00
1.9000000000e-01 1.0000000000e-02 0.0000000000e+00
2.0000000000e-01 1.0000000000e-02 0.0000000000e+00
2.1000000000e-01 1.0000000000e-02 0.0000000000e+00
2.2000000000e-01 1.0000000000e-02 0.0000000000e+00
2.3000000000e-01 1.0000000000e-02 0.0000000000e+00
2.4000000000e-01 1.0000000000e-02 0.0000000000e+00
2.5000000000e-01 1.0000000000e-02 0.0000000000e+00
2.6000000000e-01 1.0000000000e-02 0.0000000000e+00
2.7000000000e-01 1.0000000000e-02 0.0000000000e+00
2.8000000000e-01 1.0000000000e-02 0.0000000000e+00
2.9000000000e-01 1.0000000000e-02 0.0000000000e+00
3.0000000000e-01 1.0000000000e-02 0.0000000000e+00
3.1000000000e-01 1.0000000000e-02 0.0000000000e+00
3.2000000000e-01 1.0000000000e-02 0.0000000000e+00
3.3000000000e-01 1.0000000000e-02 0.0000000000e+00
3.4000000000e-01 1.0000000000e-02 0.0000000000e+00
3.5000000000e-01 1.0000000000e-02 0.0000000000e+00
3.6000000000e-01 1.0000000000e-02 0.0000000000e+00
3.7000000000e-01 1.0000000000e-02 0.0000000000e+00
3.8000000000e-01 1.0000000000e-02 0.0000000000e+00
3.9000000000e-01 1.0000000000e-02 0.0000000000e+00
4.0000000000e-01 1.0000000000e-02 0.0000000000e+00
4.1000000000e-01 1.0000000000e-02 0.0000000000e+00
4.2000000000e-01 1.0000000000e-02 0.0000000000e+00
4.3000000000e-01 1.0000000000e-02 0.0000000000e+00
4.4000000000e-01 1.0000000000e-02 0.0000000000e+00
4.5000000000e-01 1.0000000000e-02 0.0000000000e+00
4.6000000000e-01 1.0000000000e-02 0.0000000000e+00
4.7000000000e-01 1.0000000000e-02 0.0000000000e+00
4.8000000000e-01 1.0000000000e-02 0.0000000000e+00
4.9000000000e-01 1.0000000000e-02 0.0000000000e+00
5.0000000000e-01 1.0000000000e-02 0.0000000000e+00
5.1000000000e-01 1.0000000000e-02 0.0000000000e+00
5.2000000000e-01 1.0000000000e-02 0.0000000000e+00
5.3000000000e-01 1.0000000000e-02 0.0000000000e+00
5.4000000000e-01 1.0000000000e-02 0.0000000000e+00
5.5000000000e-01 1.0000000000e-02 0.0000000000e+00
5.6000000000e-01 1.0000000000e-02 0.0000000000e+00
5.7000000000e-01 1.0000000000e-02 0.0000000000e+00
5.8000000000e-01 1.0000000000e-02 0.0000000000e+00
5.9000000000e-01 1.0000000000e-02 0.0000000000e+00
6.0000000000e-01 1.0000000000e-02 0.0000000000e+00
6.1000000000e-01 1.0000000000e-02 0.0000000000e+00
6.2000000000e-01 1.0000000000e-02 0.0000000000e+00
6.3000000000e-01 1.0000000000e-02 0.0000000000e+00
6.4000000000e-01 1.0000000000e-02 0.0000000000e+00
6.5000000000e-01 1.0000000000e-02 0.0000000000e+00
6.6000000000e-01 1.0000000000e-02 0.0000000000e+00
6.7000000000e-01 1.0000000000e-02 0.0000000000e+00
6.8000000000e-01 1.0000000000e-02 0.0000000000e+00
6.9000000000e-01 1.0000000000e-02 0.0000000000e+00
7.0000000000e-01 1.0000000000e-02 0.0000000000e+00
7.1000000000e-01 1.0000000000e-02 0.0000000000e+00
7.2000000000e-01 1.0000000000e-02 0.0000000000e+00
7.3000000000e-01 1.0000000000e-02 0.0000000000e+00
7.4000000000e-01 1.0000000000e-02 0.0000000000e+00
7.5000000000e-01 1.0000000000e-02 0.0000000000e+00
7.6000000000e-01 1.0000000000e-02 0.0000000000e+00
7.7000000000e-01 1.0000000000e-02 0.0000000000e+00
7.8000000000e-01 1.0000000000e-02 0.0000000000e+00
7.9000000000e-01 1.0000000000e-02 0.0000000000e+00
8.0000000000e-01 1.0000000000e-02 0.0000000000e+00
8.1000000000e-01 1.0000000000e-02 0.0000000000e+00
8.2000000000e-01 1.0000000000e-02 0.0000000000e+00
8.3000000000e-01 1.0000000000e-02 0.0000000000e+00
8.4000000000e-01 1.0000000000e-02 0.0000000000e+00
8.5000000000e-01 1.0000000000e-02 0.0000000000e+00
8.6000000000e-01 1.0000000000e-02 0.0000000000e+00
8.7000000000e-01 1.0000000000e-02 0.0000000000e+00
8.8000000000e-01 1.0000000000e-02 0.0000000000e+00
8.9000000000e-01 1.0000000000e-02 0.0000000000e+00
9.0000000000e-01 1.0000000000e-02 0.0000000000e+00
9.1000000000e-01 1.0000000000e-02 0.0000000000e+00
9.2000000000e-01 1.0000000000e-02 0.0000000000e+00
[...]
CELL_DATA 10000

SCALARS massDensity float
LOOKUP_TABLE default
1.1939202227e+00
1.1940643380e+00
1.1942730847e+00
1.1945835103e+00
1.1949852360e+00
1.1954654841e+00
1.1960097624e+00
1.1966024783e+00
1.1972276700e+00
1.1978696170e+00
1.1985134994e+00
1.1991458621e+00
1.1997550668e+00
1.2003315147e+00
1.2008678312e+00
1.2013588331e+00
1.2018014701e+00
1.2021945934e+00
1.2025387353e+00
1.2028357756e+00
1.2030886583e+00
1.2033010523e+00
1.2034770905e+00
1.2036210925e+00
1.2037373776e+00
1.2038300798e+00
1.2039030480e+00
1.2039597519e+00
1.2040032577e+00
1.2040362015e+00
1.2040608162e+00
1.2040789454e+00
1.2040920946e+00
1.2041014631e+00
1.2041079987e+00
1.2041124327e+00
1.2041153268e+00
1.2041171022e+00
1.2041180755e+00
1.2041184788e+00
1.2041184851e+00
1.2041182207e+00
1.2041177815e+00
1.2041172399e+00
1.2041166550e+00
1.2041160765e+00
1.2041155497e+00
1.2041151189e+00
1.2041148294e+00
1.2041147301e+00
1.2041148742e+00
1.2041153219e+00
1.2041161399e+00
1.2041174048e+00
1.2041192014e+00
1.2041216272e+00
1.2041247894e+00
1.2041288106e+00
1.2041338246e+00
1.2041399828e+00
1.2041474489e+00
1.2041564060e+00
1.2041670494e+00
1.2041795940e+00
1.2041942648e+00
1.2042113033e+00
1.2042309548e+00
1.2042534724e+00
1.2042790985e+00
1.2043080643e+00
1.2043405638e+00
1.2043767459e+00
1.2044166783e+00
1.2044603325e+00
1.2045075391e+00
1.2045579696e+00
1.2046110907e+00
1.2046661548e+00
1.2047221688e+00
1.2047779119e+00
1.2048319388e+00
1.2048826432e+00
1.2049283073e+00
1.2049672172e+00
1.2049977512e+00
1.2050185272e+00
1.2050284965e+00
1.2050270786e+00
1.2050142099e+00
1.2049904155e+00
1.2049567693e+00
1.2049148726e+00
1.2048667182e+00
1.2048145844e+00
1.2047608336e+00
1.2047077597e+00
1.2046573663e+00
1.2046112097e+00
1.2045702314e+00
1.2045800941e+00
1.1940643380e+00
1.1942155606e+00
1.1944262362e+00
1.1947359836e+00
1.1951350647e+00
1.1956112339e+00
1.1961503500e+00
1.1967371607e+00
1.1973559227e+00
1.1979911675e+00
1.1986282255e+00
1.1992538351e+00
1.1998564578e+00
1.2004266344e+00
1.2009570445e+00
1.2014425931e+00
1.2018802433e+00
1.2022688901e+00
1.2026090468e+00
1.2029026022e+00
1.2031524602e+00
1.2033622759e+00
1.2035361313e+00
1.2036783210e+00
1.2037931115e+00
1.2038846087e+00
1.2039566135e+00
1.2040125701e+00
1.2040555042e+00
1.2040880320e+00
1.2041123541e+00
1.2041303004e+00
1.2041433520e+00
1.2041526990e+00
1.2041592718e+00
1.2041637954e+00
1.2041668188e+00
1.2041687590e+00
1.2041699228e+00
1.2041705388e+00
1.2041707715e+00
1.2041707434e+00
1.2041705421e+00
1.2041702348e+00
1.2041698717e+00
1.2041694947e+00
1.2041691390e+00
1.2041688375e+00
1.2041686229e+00
1.2041685288e+00
1.2041685920e+00
1.2041688522e+00
1.2041693549e+00
1.2041701497e+00
1.2041712945e+00
1.2041728517e+00
1.2041748944e+00
1.2041775007e+00
1.2041807616e+00
1.2041847738e+00
1.2041896481e+00
1.2041955013e+00
1.2042024658e+00
1.2042106792e+00
1.2042202946e+00
1.2042314690e+00
1.2042443729e+00
1.2042591762e+00
1.2042760574e+00
1.2042951853e+00
1.2043167257e+00
1.2043408171e+00
1.2043675726e+00
1.2043970480e+00
1.2044292373e+00
1.2044640324e+00
1.2045012150e+00
1.2045404129e+00
1.2045810964e+00
1.2046225435e+00
1.2046638570e+00
1.2047039550e+00
1.2047416257e+00
1.2047755559e+00
1.2048044305e+00
1.2048269944e+00
1.2048421821e+00
1.2048491853e+00
1.2048475754e+00
1.2048373328e+00
1.2048189176e+00
1.2047932229e+00
1.2047615671e+00
1.2047255636e+00
1.2046870440e+00
1.2046478747e+00
1.2046098527e+00
1.2045745363e+00
1.2045431979e+00
1.2045670630e+00
1.1942730847e+00
1.1944262362e+00
1.1946341150e+00
1.1949383509e+00
1.1953296370e+00
1.1957960863e+00
1.1963239989e+00
1.1968984581e+00
1.1975041426e+00
1.1981258833e+00
1.1987493864e+00
1.1993616304e+00
1.1999513750e+00
1.2005093211e+00
1.2010283494e+00
1.2015034386e+00
1.2019316554e+00
1.2023118899e+00
1.2026446779e+00
1.2029318454e+00
1.2031762615e+00
1.2033814851e+00
1.2035515330e+00
1.2036905927e+00
1.2038028567e+00
1.2038923297e+00
1.2039627446e+00
1.2040174604e+00
1.2040594478e+00
1.2040912572e+00
1.2041150499e+00
1.2041326075e+00
1.2041453859e+00
1.2041545421e+00
1.2041609916e+00
1.2041654379e+00
1.2041684222e+00
1.2041703478e+00
1.2041715180e+00
1.2041721527e+00
1.2041724155e+00
1.2041724231e+00
1.2041722630e+00
1.2041719988e+00
1.2041716804e+00
1.2041713472e+00
1.2041710336e+00
1.2041707708e+00
1.2041705896e+00
1.2041705219e+00
1.2041706017e+00
1.2041708671e+00
1.2041713592e+00
1.2041721257e+00
1.2041732183e+00
1.2041746971e+00
1.2041766266e+00
1.2041790818e+00
1.2041821427e+00
1.2041859011e+00
1.2041904541e+00
1.2041959115e+00
1.2042023885e+00
1.2042100135e+00
1.2042189192e+00
1.2042292515e+00
1.2042411589e+00
1.2042548017e+00
1.2042703391e+00
1.2042879385e+00
1.2043077585e+00
1.2043299556e+00
1.2043546619e+00
1.2043819851e+00
1.2044119775e+00
1.2044446282e+00
1.2044798217e+00
1.2045173243e+00
1.2045567390e+00
1.2045974967e+00
1.2046388225e+00
1.2046797512e+00
1.2047191256e+00
1.2047556565e+00
1.2047879659e+00
1.2048146973e+00
1.2048345945e+00
1.2048466405e+00
1.2048501346e+00
1.2048448138e+00
1.2048308756e+00
1.2048090337e+00
1.2047804483e+00
1.2047466945e+00
1.2047096058e+00
1.2046711799e+00
1.2046333880e+00
1.2045980881e+00
1.2045669038e+00
1.2045973370e+00
1.1945835103e+00
1.1947359836e+00
1.1949383509e+00
1.1952337656e+00
1.1956132024e+00
1.1960652547e+00
1.1965766489e+00
1.1971330387e+00
1.1977195530e+00
1.1983215854e+00
1.1989252457e+00
1.1995179958e+00
1.2000889011e+00
1.2006290190e+00
1.2011314108e+00
1.2015912669e+00
1.2020057099e+00
1.2023737091e+00
1.2026957528e+00
1.2029736445e+00
1.2032101379e+00
1.2034087065e+00
1.2035732196e+00
1.2037077524e+00
1.2038163477e+00
1.2039028986e+00
1.2039710051e+00
1.2040239309e+00
1.2040645404e+00
1.2040953115e+00
1.2041183266e+00
1.2041353175e+00
1.2041476851e+00
1.2041565552e+00
1.2041628071e+00
1.2041671264e+00
1.2041700314e+00
1.2041719163e+00
1.2041730701e+00
1.2041737090e+00
1.2041739877e+00
1.2041740214e+00
1.2041738925e+00
1.2041736637e+00
1.2041733817e+00
1.2041730853e+00
1.2041728064e+00
1.2041725751e+00
1.2041724204e+00
1.2041723722e+00
1.2041724626e+00
1.2041727265e+00
1.2041732034e+00
1.2041739361e+00
1.2041749741e+00
1.2041763709e+00
1.2041781882e+00
1.2041804924e+00
1.2041833593e+00
1.2041868694e+00
1.2041911140e+00
1.2041961888e+00
1.2042022008e+00
1.2042092609e+00
1.2042174917e+00
1.2042270189e+00
1.2042379803e+00
1.2042505162e+00
1.2042647790e+00
1.2042809227e+00
1.2042991122e+00
1.2043195088e+00
1.2043422762e+00
1.2043675592e+00
1.2043954809e+00
1.2044261091e+00
1.2044594427e+00
1.2044953651e+00
1.2045336222e+00
1.2045737731e+00
1.2046151757e+00
1.2046569552e+00
1.2046980225e+00
1.2047370862e+00
1.2047727265e+00
1.2048034612e+00
1.2048278750e+00
1.2048447200e+00
1.2048530669e+00
1.2048523867e+00
1.2048426669e+00
1.2048244146e+00
1.2047986866e+00
1.2047669845e+00
1.2047311915e+00
1.2046933835e+00
1.2046557205e+00
1.2046202514e+00
1.2045888422e+00
1.2046247204e+00
1.1949852360e+00
1.1951350647e+00
1.1953296370e+00
1.1956132024e+00
1.1959771425e+00
1.1964104802e+00
1.1969005836e+00
1.1974336595e+00
1.1979955513e+00
1.1985722077e+00
1.1991504068e+00
1.1997180770e+00
1.2002648199e+00
1.2007820133e+00
1.2012630773e+00
1.2017033576e+00
1.2021001537e+00
1.2024524399e+00
1.2027607291e+00
1.2030267179e+00
1.2032530789e+00
1.2034431145e+00
1.2036005570e+00
1.2037292897e+00
1.2038332040e+00
1.2039160122e+00
1.2039811762e+00
1.2040318083e+00
1.2040706621e+00
1.2041000994e+00
1.2041221222e+00
1.2041383798e+00
1.2041502199e+00
1.2041587128e+00
1.2041647057e+00
1.2041688488e+00
1.2041716427e+00
1.2041734597e+00
1.2041745803e+00
1.2041752072e+00
1.2041754915e+00
1.2041755406e+00
1.2041754353e+00
1.2041752335e+00
1.2041749813e+00
1.2041747142e+00
1.2041744635e+00
1.2041742570e+00
1.2041741222e+00
1.2041740871e+00
1.2041741818e+00
1.2041744390e+00
1.2041748948e+00
1.2041755899e+00
1.2041765687e+00
1.2041778822e+00
1.2041795853e+00
1.2041817407e+00
1.2041844152e+00
1.2041876846e+00
1.2041916281e+00
1.2041963349e+00
1.2042018970e+00
1.2042084164e+00
1.2042159979e+00
1.2042247565e+00
1.2042348108e+00
1.2042462918e+00
1.2042593355e+00
1.2042740945e+00
1.2042907290e+00
1.2043094173e+00
1.2043303431e+00
1.2043536998e+00
1.2043796673e+00
1.2044084035e+00
1.2044400041e+00
1.2044744788e+00
1.2045116960e+00
1.2045513501e+00
1.2045929087e+00
1.2046355941e+00
1.2046783611e+00
1.2047199271e+00
1.2047588072e+00
1.2047934131e+00
1.2048221502e+00
1.2048435722e+00
1.2048565016e+00
1.2048601897e+00
1.2048543914e+00
1.2048394620e+00
1.2048163245e+00
1.2047864614e+00
1.2047517612e+00
1.2047144194e+00
1.2046767176e+00
1.2046409014e+00
1.2046089790e+00
1.2046493991e+00
1.1954654841e+00
1.1956112339e+00
1.1957960863e+00
1.1960652547e+00
1.1964104802e+00
1.1968214142e+00
1.1972860162e+00
1.1977912991e+00
1.1983237761e+00
1.1988702219e+00
1.1994180350e+00
1.1999558633e+00
1.2004737862e+00
1.2009637125e+00
1.2014193495e+00
1.2018363546e+00
1.2022121220e+00
1.2025457351e+00
1.2028376421e+00
1.2030894941e+00
1.2033037936e+00
1.2034837022e+00
1.2036327322e+00
1.2037545870e+00
1.2038529340e+00
1.2039313078e+00
1.2039929724e+00
1.2040408889e+00
1.2040776530e+00
1.2041055115e+00
1.2041263502e+00
1.2041417386e+00
1.2041529447e+00
1.2041609882e+00
1.2041666643e+00
1.2041705937e+00
1.2041732449e+00
1.2041749745e+00
1.2041760435e+00
1.2041766474e+00
1.2041769256e+00
1.2041769826e+00
1.2041768921e+00
1.2041767112e+00
1.2041764814e+00
1.2041762377e+00
1.2041760085e+00
1.2041758206e+00
1.2041756995e+00
1.2041756715e+00
1.2041757647e+00
1.2041760094e+00
1.2041764395e+00
1.2041770919e+00
1.2041780087e+00
1.2041792355e+00
1.2041808240e+00
1.2041828298e+00
1.2041853156e+00
1.2041883474e+00
1.2041919989e+00
1.2041963465e+00
1.2042014749e+00
1.2042074704e+00
1.2042144280e+00
1.2042224452e+00
1.2042316303e+00
1.2042420969e+00
1.2042539753e+00
1.2042674075e+00
1.2042825604e+00
1.2042996198e+00
1.2043188006e+00
1.2043403343e+00
1.2043644682e+00
1.2043914368e+00
1.2044214422e+00
1.2044546035e+00
1.2044909177e+00
1.2045301950e+00
1.2045720154e+00
1.2046156769e+00
1.2046601817e+00
1.2047042337e+00
1.2047462922e+00
1.2047846435e+00
1.2048175337e+00
1.2048433014e+00
1.2048605571e+00
1.2048683142e+00
1.2048661453e+00
1.2048542296e+00
1.2048334140e+00
1.2048051248e+00
1.2047713102e+00
1.2047342324e+00
1.2046963339e+00
1.2046599890e+00
1.2046273724e+00
1.2046716026e+00
1.1960097624e+00
1.1961503500e+00
1.1963239989e+00
1.1965766489e+00
1.1969005836e+00
1.1972860162e+00
1.1977217299e+00
1.1981954675e+00
1.1986946749e+00
1.1992068726e+00
1.1997203405e+00
1.2002243602e+00
1.2007097204e+00
1.2011687693e+00
1.2015956865e+00
1.2019863457e+00
1.2023383697e+00
1.2026508546e+00
1.2029242727e+00
1.2031601361e+00
1.2033608299e+00
1.2035292893e+00
1.2036688357e+00
1.2037829174e+00
1.2038749927e+00
1.2039483559e+00
1.2040060812e+00
1.2040509287e+00
1.2040853419e+00
1.2041114142e+00
1.2041309211e+00
1.2041453233e+00
1.2041558155e+00
1.2041633452e+00
1.2041686627e+00
1.2041723431e+00
1.2041748299e+00
1.2041764520e+00
1.2041774577e+00
1.2041780260e+00
1.2041782908e+00
1.2041783467e+00
1.2041782654e+00
1.2041780979e+00
1.2041778851e+00
1.2041776582e+00
1.2041774449e+00
1.2041772696e+00
1.2041771564e+00
1.2041771298e+00
1.2041772159e+00
1.2041774430e+00
1.2041778421e+00
1.2041784480e+00
1.2041792985e+00
1.2041804365e+00
1.2041819080e+00
1.2041837650e+00
1.2041860623e+00
1.2041888611e+00
1.2041922249e+00
1.2041962236e+00
1.2042009283e+00
1.2042064169e+00
1.2042127685e+00
1.2042200707e+00
1.2042284148e+00
1.2042379061e+00
1.2042486616e+00
1.2042608229e+00
1.2042745559e+00
1.2042900644e+00
1.2043075865e+00
1.2043274020e+00
1.2043498161e+00
1.2043751489e+00
1.2044036961e+00
1.2044356926e+00
1.2044712479e+00
1.2045102894e+00
1.2045524913e+00
1.2045972254e+00
1.2046435213e+00
1.2046900698e+00
1.2047352556e+00
1.2047772483e+00
1.2048141198e+00
1.2048440169e+00
1.2048653240e+00
1.2048768585e+00
1.2048779925e+00
1.2048687848e+00
1.2048499768e+00
1.2048229999e+00
1.2047898173e+00
1.2047528132e+00
1.2047145323e+00
1.2046775223e+00
1.2046440674e+00
1.2046915148e+00
1.1966024783e+00
1.1967371607e+00
1.1968984581e+00
1.1971330387e+00
1.1974336595e+00
1.1977912991e+00
1.1981954675e+00
1.1986348795e+00
1.1990978047e+00
1.1995727633e+00
1.2000488024e+00
1.2005160763e+00
1.2009659675e+00
1.2013914671e+00
1.2017871139e+00
1.2021491563e+00
1.2024753380e+00
1.2027648816e+00
1.2030181838e+00
1.2032366935e+00
1.2034225897e+00
1.2035786287e+00
1.2037078639e+00
1.2038135178e+00
1.2038987757e+00
1.2039667098e+00
1.2040201533e+00
1.2040616777e+00
1.2040935346e+00
1.2041176740e+00
1.2041357307e+00
1.2041490660e+00
1.2041587782e+00
1.2041657512e+00
1.2041706734e+00
1.2041740828e+00
1.2041763844e+00
1.2041778872e+00
1.2041788167e+00
1.2041793424e+00
1.2041795848e+00
1.2041796344e+00
1.2041795550e+00
1.2041793962e+00
1.2041791939e+00
1.2041789789e+00
1.2041787755e+00
1.2041786075e+00
1.2041784966e+00
1.2041784660e+00
1.2041785397e+00
1.2041787439e+00
1.2041791075e+00
1.2041796621e+00
1.2041804431e+00
1.2041814887e+00
1.2041828419e+00
1.2041845484e+00
1.2041866588e+00
1.2041892258e+00
1.2041923074e+00
1.2041959621e+00
1.2042002538e+00
1.2042052463e+00
1.2042110095e+00
1.2042176151e+00
1.2042251452e+00
1.2042336906e+00
1.2042433637e+00
1.2042542997e+00
1.2042666728e+00
1.2042806987e+00
1.2042966486e+00
1.2043148436e+00
1.2043356559e+00
1.2043594826e+00
1.2043867192e+00
1.2044177044e+00
1.2044526617e+00
1.2044916206e+00
1.2045343451e+00
1.2045802636e+00
1.2046284267e+00
1.2046774950e+00
1.2047257769e+00
1.2047713109e+00
1.2048120055e+00
1.2048458046e+00
1.2048708965e+00
1.2048858898e+00
1.2048900053e+00
1.2048831600e+00
1.2048660523e+00
1.2048400816e+00
1.2048072909e+00
1.2047701329e+00
1.2047313131e+00
1.2046934914e+00
1.2046591142e+00
1.2047092335e+00
1.1972276700e+00
1.1973559227e+00
1.1975041426e+00
1.1977195530e+00
1.1979955513e+00
1.1983237761e+00
1.1986946749e+00
1.1990978047e+00
1.1995224927e+00
1.1999581189e+00
1.2003947303e+00
1.2008232127e+00
1.2012357531e+00
1.2016258504e+00
1.2019885774e+00
1.2023204338e+00
1.2026194186e+00
1.2028847715e+00
1.2031169107e+00
1.2033171277e+00
1.2034874623e+00
1.2036304129e+00
1.2037488098e+00
1.2038455850e+00
1.2039236810e+00
1.2039858964e+00
1.2040348445e+00
1.2040728683e+00
1.2041020433e+00
1.2041241453e+00
1.2041406816e+00
1.2041528901e+00
1.2041617846e+00
1.2041681673e+00
1.2041726747e+00
1.2041757934e+00
1.2041778994e+00
1.2041792707e+00
1.2041801180e+00
1.2041805925e+00
1.2041808081e+00
1.2041808444e+00
1.2041807629e+00
1.2041806065e+00
1.2041804106e+00
1.2041802015e+00
1.2041800035e+00
1.2041798370e+00
1.2041797234e+00
1.2041796834e+00
1.2041797396e+00
1.2041799161e+00
1.2041802393e+00
1.2041807386e+00
1.2041814458e+00
1.2041823963e+00
1.2041836282e+00
1.2041851834e+00
1.2041871058e+00
1.2041894431e+00
1.2041922440e+00
1.2041955606e+00
1.2041994446e+00
1.2042039517e+00
1.2042091373e+00
1.2042150638e+00
1.2042217989e+00
1.2042294263e+00
1.2042380485e+00
1.2042478029e+00
1.2042588672e+00
1.2042714783e+00
1.2042859354e+00
1.2043026103e+00
1.2043219362e+00
1.2043443938e+00
1.2043704708e+00
1.2044006114e+00
1.2044351418e+00
1.2044741887e+00
1.2045175918e+00
1.2045648257e+00
1.2046149468e+00
1.2046665752e+00
1.2047179298e+00
1.2047669168e+00
1.2048112716e+00
1.2048487521e+00
1.2048773420e+00
1.2048954799e+00
1.2049022215e+00
1.2048974003e+00
1.2048816433e+00
1.2048563869e+00
1.2048237068e+00
1.2047861925e+00
1.2047466488e+00
1.2047079086e+00
1.2046725191e+00
1.2047248206e+00
1.1978696170e+00
1.1979911675e+00
1.1981258833e+00
1.1983215854e+00
1.1985722077e+00
1.1988702219e+00
1.1992068726e+00
1.1995727633e+00
1.1999581189e+00
1.2003533934e+00
1.2007494691e+00
1.2011381685e+00
1.2015123249e+00
1.2018661258e+00
1.2021950353e+00
1.2024959524e+00
1.2027670085e+00
1.2030075749e+00
1.2032179890e+00
1.2033994697e+00
1.2035538343e+00
1.2036833845e+00
1.2037906618e+00
1.2038783510e+00
1.2039491007e+00
1.2040054673e+00
1.2040498045e+00
1.2040842503e+00
1.2041106739e+00
1.2041306951e+00
1.2041456699e+00
1.2041567285e+00
1.2041647812e+00
1.2041705616e+00
1.2041746395e+00
1.2041774612e+00
1.2041793618e+00
1.2041805978e+00
1.2041813555e+00
1.2041817758e+00
1.2041819581e+00
1.2041819782e+00
1.2041818886e+00
1.2041817313e+00
1.2041815360e+00
1.2041813289e+00
1.2041811305e+00
1.2041809612e+00
1.2041808395e+00
1.2041807854e+00
1.2041808189e+00
1.2041809628e+00
1.2041812411e+00
1.2041816805e+00
1.2041823102e+00
1.2041831618e+00
1.2041842699e+00
1.2041856712e+00
1.2041874050e+00
1.2041895117e+00
1.2041920341e+00
1.2041950141e+00
1.2041984960e+00
1.2042025228e+00
1.2042071410e+00
1.2042123992e+00
1.2042183569e+00
1.2042250863e+00
1.2042326876e+00
1.2042412960e+00
1.2042511017e+00
1.2042623591e+00
1.2042754042e+00
1.2042906561e+00
1.2043086162e+00
1.2043298443e+00
1.2043549229e+00
1.2043843944e+00
1.2044186834e+00
1.2044580032e+00
1.2045022571e+00
1.2045509530e+00
1.2046031369e+00
1.2046573768e+00
1.2047117900e+00
1.2047641420e+00
1.2048119984e+00
1.2048529256e+00
1.2048847287e+00
1.2049056687e+00
1.2049146861e+00
1.2049115120e+00
1.2048967694e+00
1.2048718934e+00
1.2048390665e+00
1.2048009570e+00
1.2047605387e+00
1.2047207498e+00
1.2046842993e+00
1.2047382858e+00
1.1985134994e+00
1.1986282255e+00
1.1987493864e+00
1.1989252457e+00
1.1991504068e+00
1.1994180350e+00
1.1997203405e+00
1.2000488024e+00
1.2003947303e+00
1.2007494691e+00
1.2011049248e+00
1.2014536772e+00
1.2017893811e+00
1.2021067502e+00
1.2024017919e+00
1.2026716653e+00
1.2029147597e+00
1.2031304644e+00
1.2033191349e+00
1.2034818283e+00
1.2036202153e+00
1.2037363326e+00
1.2038324898e+00
1.2039110731e+00
1.2039744800e+00
1.2040249857e+00
1.2040647171e+00
1.2040955774e+00
1.2041192544e+00
1.2041371893e+00
1.2041506068e+00
1.2041605109e+00
1.2041677247e+00
1.2041728982e+00
1.2041765481e+00
1.2041790683e+00
1.2041807638e+00
1.2041818596e+00
1.2041825270e+00
1.2041828880e+00
1.2041830355e+00
1.2041830340e+00
1.2041829340e+00
1.2041827703e+00
1.2041825724e+00
1.2041823619e+00
1.2041821593e+00
1.2041819819e+00
1.2041818477e+00
1.2041817741e+00
1.2041817805e+00
1.2041818868e+00
1.2041821155e+00
1.2041824906e+00
1.2041830385e+00
1.2041837876e+00
1.2041847684e+00
1.2041860134e+00
1.2041875561e+00
1.2041894316e+00
1.2041916742e+00
1.2041943193e+00
1.2041974002e+00
1.2042009513e+00
1.2042050067e+00
1.2042096063e+00
1.2042147973e+00
1.2042206472e+00
1.2042272503e+00
1.2042347475e+00
1.2042433385e+00
1.2042533037e+00
1.2042650145e+00
1.2042789442e+00
1.2042956607e+00
1.2043158070e+00
1.2043400562e+00
1.2043690463e+00
1.2044032931e+00
1.2044430846e+00
1.2044883775e+00
1.2045386939e+00
1.2045930592e+00
1.2046499687e+00
1.2047074310e+00
1.2047630613e+00
1.2048142520e+00
1.2048583896e+00
1.2048930980e+00
1.2049164990e+00
1.2049274072e+00
1.2049255132e+00
1.2049114081e+00
1.2048866009e+00
1.2048533302e+00
1.2048144200e+00
1.2047729443e+00
1.2047320160e+00
1.2046944332e+00
1.2047496405e+00
1.1991458621e+00
1.1992538351e+00
1.1993616304e+00
1.1995179958e+00
1.1997180770e+00
1.1999558633e+00
1.2002243602e+00
1.2005160763e+00
1.2008232127e+00
1.2011381685e+00
1.2014536772e+00
1.2017632359e+00
1.2020611394e+00
1.2023427741e+00
1.2026045344e+00
1.2028439676e+00
1.2030595938e+00
1.2032509278e+00
1.2034182453e+00
1.2035625289e+00
1.2036852302e+00
1.2037881897e+00
1.2038734327e+00
1.2039431009e+00
1.2039993022e+00
1.2040440731e+00
1.2040792849e+00
1.2041066391e+00
1.2041276204e+00
1.2041435168e+00
1.2041554045e+00
1.2041641816e+00
1.2041705696e+00
1.2041751512e+00
1.2041783777e+00
1.2041806037e+00
1.2041820941e+00
1.2041830527e+00
1.2041836270e+00
1.2041839291e+00
1.2041840377e+00
1.2041840135e+00
1.2041838981e+00
1.2041837257e+00
1.2041835201e+00
1.2041833030e+00
1.2041830910e+00
1.2041829015e+00
1.2041827495e+00
1.2041826523e+00
1.2041826263e+00
1.2041826905e+00
1.2041828648e+00
1.2041831711e+00
1.2041836328e+00
1.2041842751e+00
1.2041851250e+00
1.2041862100e+00
1.2041875591e+00
1.2041892003e+00
1.2041911620e+00
1.2041934703e+00
1.2041961506e+00
1.2041992261e+00
1.2042027222e+00
1.2042066669e+00
1.2042111008e+00
1.2042160833e+00
1.2042217097e+00
1.2042281245e+00
1.2042355449e+00
1.2042442763e+00