# vtk DataFile Version 2.0
Blank
ASCII
DATASET STRUCTURED_GRID
DIMENSIONS 101 101 2
POINTS 20402 float
0.0000000000e+00 0.0000000000e+00 0.0000000000e+00
1.0000000000e-02 0.0000000000e+00 0.0000000000e+00
2.0000000000e-02 0.0000000000e+00 0.0000000000e+00
3.0000000000e-02 0.0000000000e+00 0.0000000000e+00
4.0000000000e-02 0.0000000000e+00 0.0000000000e+00
5.0000000000e-02 0.0000000000e+00 0.0000000000e+00
6.0000000000e-02 0.0000000000e+00 0.0000000000e+00
7.0000000000e-02 0.0000000000e+00 0.0000000000e+00
8.0000000000e-02 0.0000000000e+00 0.0000000000e+00
9.0000000000e-02 0.0000000000e+00 0.0000000000e+00
1.0000000000e-01 0.0000000000e+00 0.0000000000e+00
1.1000000000e-01 0.0000000000e+00 0.0000000000e+00
1.2000000000e-01 0.0000000000e+00 0.0000000000e+00
1.3000000000e-01 0.0000000000e+00 0.0000000000e+00
1.4000000000e-01 0.0000000000e+00 0.0000000000e+00
1.5000000000e-01 0.0000000000e+00 0.0000000000e+00
1.6000000000e-01 0.0000000000e+00 0.0000000000e+00
1.7000000000e-01 0.0000000000e+00 0.0000000000e+00
1.8000000000e-01 0.0000000000e+00 0.0000000000e+00
1.9000000000e-01 0.0000000000e+00 0.0000000000e+00
2.0000000000e-01 0.0000000000e+00 0.0000000000e+00
2.1000000000e-01 0.0000000000e+00 0.0000000000e+00
2.2000000000e-01 0.0000000000e+00 0.0000000000e+00
2.3000000000e-01 0.0000000000e+00 0.0000000000e+00
2.4000000000e-01 0.0000000000e+00 0.0000000000e+00
2.5000000000e-01 0.0000000000e+00 0.0000000000e+00
2.6000000000e-01 0.0000000000e+00 0.0000000000e+00
2.7000000000e-01 0.0000000000e+00 0.0000000000e+00
2.8000000000e-01 0.0000000000e+00 0.0000000000e+00
2.9000000000e-01 0.0000000000e+00 0.0000000000e+00
3.0000000000e-01 0.0000000000e+00 0.0000000000e+00
3.1000000000e-01 0.0000000000e+00 0.0000000000e+00
3.2000000000e-01 0.0000000000e+00 0.0000000000e+00
3.3000000000e-01 0.0000000000e+00 0.0000000000e+00
3.4000000000e-01 0.0000000000e+00 0.0000000000e+00
3.5000000000e-01 0.0000000000e+00 0.0000000000e+00
3.6000000000e-01 0.0000000000e+00 0.0000000000e+00
3.7000000000e-01 0.0000000000e+00 0.0000000000e+00
3.8000000000e-01 0.0000000000e+00 0.0000000000e+00
3.9000000000e-01 0.0000000000e+00 0.0000000000e+00
4.0000000000e-01 0.0000000000e+00 0.0000000000e+00
4.1000000000e-01 0.0000000000e+00 0.0000000000e+00
4.2000000000e-01 0.0000000000e+00 0.0000000000e+00
4.3000000000e-01 0.0000000000e+00 0.0000000000e+00
4.4000000000e-01 0.0000000000e+00 0.0000000000e+00
4.5000000000e-01 0.0000000000e+00 0.0000000000e+00
4.6000000000e-01 0.0000000000e+00 0.0000000000e+00
4.7000000000e-01 0.0000000000e+00 0.0000000000e+00
4.8000000000e-01 0.0000000000e+00 0.0000000000e+00
4.9000000000e-01 0.0000000000e+00 0.0000000000e+00
5.0000000000e-01 0.0000000000e+00 0.0000000000e+00
5.1000000000e-01 0.0000000000e+00 0.0000000000e+00
5.2000000000e-01 0.0000000000e+00 0.0000000000e+00
5.3000000000e-01 0.0000000000e+00 0.0000000000e+00
5.4000000000e-01 0.0000000000e+00 0.0000000000e+00
5.5000000000e-01 0.0000000000e+00 0.0000000000e+00
5.6000000000e-01 0.0000000000e+00 0.0000000000e+00
5.7000000000e-01 0.0000000000e+00 0.0000000000e+00
5.8000000000e-01 0.0000000000e+00 0.0000000000e+00
5.9000000000e-01 0.0000000000e+00 0.0000000000e+00
6.0000000000e-01 0.0000000000e+00 0.0000000000e+00
6.1000000000e-01 0.0000000000e+00 0.0000000000e+00
6.2000000000e-01 0.0000000000e+00 0.0000000000e+00
6.3000000000e-01 0.0000000000e+00 0.0000000000e+00
6.4000000000e-01 0.0000000000e+00 0.0000000000e+00
6.5000000000e-01 0.0000000000e+00 0.0000000000e+00
6.6000000000e-01 0.0000000000e+00 0.0000000000e+00
6.7000000000e-01 0.0000000000e+00 0.0000000000e+00
6.8000000000e-01 0.0000000000e+00 0.0000000000e+00
6.9000000000e-01 0.0000000000e+00 0.0000000000e+00
7.0000000000e-01 0.0000000000e+00 0.0000000000e+00
7.1000000000e-01 0.0000000000e+00 0.0000000000e+00
7.2000000000e-01 0.0000000000e+00 0.0000000000e+00
7.3000000000e-01 0.0000000000e+00 0.0000000000e+00
7.4000000000e-01 0.0000000000e+00 0.0000000000e+00
7.5000000000e-01 0.0000000000e+00 0.0000000000e+00
7.6000000000e-01 0.0000000000e+00 0.0000000000e+00
7.7000000000e-01 0.0000000000e+00 0.0000000000e+00
7.8000000000e-01 0.0000000000e+00 0.0000000000e+00
7.9000000000e-01 0.0000000000e+00 0.0000000000e+00
8.0000000000e-01 0.0000000000e+00 0.0000000000e+00
8.1000000000e-01 0.0000000000e+00 0.0000000000e+00
8.2000000000e-01 0.0000000000e+00 0.0000000000e+00
8.3000000000e-01 0.0000000000e+00 0.0000000000e+00
8.4000000000e-01 0.0000000000e+00 0.0000000000e+00
8.5000000000e-01 0.0000000000e+00 0.0000000000e+00
8.6000000000e-01 0.0000000000e+00 0.0000000000e+00
8.7000000000e-01 0.0000000000e+00 0.0000000000e+00
8.8000000000e-01 0.0000000000e+00 0.0000000000e+00
8.9000000000e-01 0.0000000000e+00 0.0000000000e+00
9.0000000000e-01 0.0000000000e+00 0.0000000000e+00
9.1000000000e-01 0.0000000000e+00 0.0000000000e+00
9.2000000000e-01 0.0000000000e+00 0.0000000000e+00
9.3000000000e-01 0.0000000000e+00 0.0000000000e+00
9.4000000000e-01 0.0000000000e+00 0.0000000000e+00
9.5000000000e-01 0.0000000000e+00 0.0000000000e+00
9.6000000000e-01 0.0000000000e+00 0.0000000000e+00
9.7000000000e-01 0.0000000000e+00 0.0000000000e+00
9.8000000000e-01 0.0000000000e+00 0.0000000000e+00
9.9000000000e-01 0.0000000000e+00 0.0000000000e+00
1.0000000000e+00 0.0000000000e+00 0.0000000000e+00
0.0000000000e+00 1.0000000000e-02 0.0000000000e+00
1.0000000000e-02 1.0000000000e-02 0.0000000000e+00
2.0000000000e-02 1.0000000000e-02 0.0000000000e+00
3.0000000000e-02 1.0000000000e-02 0.0000000000e+00
4.0000000000e-02 1.0000000000e-02 0.0000000000e+00
5.0000000000e-02 1.0000000000e-02 0.0000000000e+00
6.0000000000e-02 1.0000000000e-02 0.0000000000e+00
7.0000000000e-02 1.0000000000e-02 0.0000000000e+00
8.0000000000e-02 1.0000000000e-02 0.0000000000e+00
9.0000000000e-02 1.0000000000e-02 0.0000000000e+00
1.0000000000e-01 1.0000000000e-02 0.0000000000e+00
1.1000000000e-01 1.0000000000e-02 0.0000000000e+00
1.2000000000e-01 1.0000000000e-02 0.0000000000e+00
1.3000000000e-01 1.0000000000e-02 0.0000000000e+00
1.4000000000e-01 1.0000000000e-02 0.0000000000e+00
1.5000000000e-01 1.0000000000e-02 0.0000000000e+00
1.6000000000e-01 1.0000000000e-02 0.0000000000e+00
1.7000000000e-01 1.0000000000e-02 0.0000000000e+00
1.8000000000e-01 1.0000000000e-02 0.0000000000e+00
1.9000000000e-01 1.0000000000e-02 0.0000000000e+00
2.0000000000e-01 1.0000000000e-02 0.0000000000e+00
2.1000000000e-01 1.0000000000e-02 0.0000000000e+00
2.2000000000e-01 1.0000000000e-02 0.0000000000e+00
2.3000000000e-01 1.0000000000e-02 0.0000000000e+00
2.4000000000e-01 1.0000000000e-02 0.0000000000e+00
2.5000000000e-01 1.0000000000e-02 0.0000000000e+00
2.6000000000e-01 1.0000000000e-02 0.0000000000e+00
2.7000000000e-01 1.0000000000e-02 0.0000000000e+00
2.8000000000e-01 1.0000000000e-02 0.0000000000e+00
2.9000000000e-01 1.0000000000e-02 0.0000000000e+00
3.0000000000e-01 1.0000000000e-02 0.0000000000e+00
3.1000000000e-01 1.0000000000e-02 0.0000000000e+00
3.2000000000e-01 1.0000000000e-02 0.0000000000e+00
3.3000000000e-01 1.0000000000e-02 0.0000000000e+00
3.4000000000e-01 1.0000000000e-02 0.0000000000e+00
3.5000000000e-01 1.0000000000e-02 0.0000000000e+00
3.6000000000e-01 1.0000000000e-02 0.0000000000e+00
3.7000000000e-01 1.0000000000e-02 0.0000000000e+00
3.8000000000e-01 1.0000000000e-02 0.0000000000e+00
3.9000000000e-01 1.0000000000e-02 0.0000000000e+00
4.0000000000e-01 1.0000000000e-02 0.0000000000e+00
4.1000000000e-01 1.0000000000e-02 0.0000000000e+00
4.2000000000e-01 1.0000000000e-02 0.0000000000e+00
4.3000000000e-01 1.0000000000e-02 0.0000000000e+00
4.4000000000e-01 1.0000000000e-02 0.0000000000e+00
4.5000000000e-01 1.0000000000e-02 0.0000000000e+00
4.6000000000e-01 1.0000000000e-02 0.0000000000e+00
4.7000000000e-01 1.0000000000e-02 0.0000000000e+00
4.8000000000e-01 1.0000000000e-02 0.0000000000e+00
4.9000000000e-01 1.0000000000e-02 0.0000000000e+00
5.0000000000e-01 1.0000000000e-02 0.0000000000e+00
5.1000000000e-01 1.0000000000e-02 0.0000000000e+00
5.2000000000e-01 1.0000000000e-02 0.0000000000e+00
5.3000000000e-01 1.0000000000e-02 0.0000000000e+00
5.4000000000e-01 1.0000000000e-02 0.0000000000e+00
5.5000000000e-01 1.0000000000e-02 0.0000000000e+00
5.6000000000e-01 1.0000000000e-02 0.0000000000e+00
5.7000000000e-01 1.0000000000e-02 0.0000000000e+00
5.8000000000e-01 1.0000000000e-02 0.0000000000e+00
5.9000000000e-01 1.0000000000e-02 0.0000000000e+00
6.0000000000e-01 1.0000000000e-02 0.0000000000e+00
6.1000000000e-01 1.0000000000e-02 0.0000000000e+00
6.2000000000e-01 1.0000000000e-02 0.0000000000e+00
6.3000000000e-01 1.0000000000e-02 0.0000000000e+00
6.4000000000e-01 1.0000000000e-02 0.0000000000e+00
6.5000000000e-01 1.0000000000e-02 0.0000000000e+00
6.6000000000e-01 1.0000000000e-02 0.0000000000e+00
6.7000000000e-01 1.0000000000e-02 0.0000000000e+00
6.8000000000e-01 1.0000000000e-02 0.0000000000e+00
6.9000000000e-01 1.0000000000e-02 0.0000000000e+00
7.0000000000e-01 1.0000000000e-02 0.0000000000e+00
7.1000000000e-01 1.0000000000e-02 0.0000000000e+00
7.2000000000e-01 1.0000000000e-02 0.0000000000e+00
7.3000000000e-01 1.0000000000e-02 0.0000000000e+00
7.4000000000e-01 1.0000000000e-02 0.0000000000e+00
7.5000000000e-01 1.0000000000e-02 0.0000000000e+00
7.6000000000e-01 1.0000000000e-02 0.0000000000e+00
7.7000000000e-01 1.0000000000e-02 0.0000000000e+00
7.8000000000e-01 1.0000000000e-02 0.0000000000e+00
7.9000000000e-01 1.0000000000e-02 0.0000000000e+00
8.0000000000e-01 1.0000000000e-02 0.0000000000e+00
8.1000000000e-01 1.0000000000e-02 0.0000000000e+00
8.2000000000e-01 1.0000000000e-02 0.0000000000e+00
8.3000000000e-01 1.0000000000e-02 0.0000000000e+00
8.4000000000e-01 1.0000000000e-02 0.0000000000e+00
8.5000000000e-01 1.0000000000e-02 0.0000000000e+00
8.6000000000e-01 1.0000000000e-02 0.0000000000e+00
8.7000000000e-01 1.0000000000e-02 0.0000000000e+00
8.8000000000e-01 1.0000000000e-02 0.0000000000e+00
8.9000000000e-01 1.0000000000e-02 0.0000000000e+00
9.0000000000e-01 1.0000000000e-02 0.0000000000e+00
9.1000000000e-01 1.0000000000e-02 0.0000000000e+00
9.2000000000e-01 1.0000000000e-02 0.0000000000e+00
[...]
CELL_DATA 10000

SCALARS massDensity float
LOOKUP_TABLE default
1.1967971079e+00
1.1968728615e+00
1.1969839919e+00
1.1971505040e+00
1.1973682234e+00
1.1976319676e+00
1.1979357282e+00
1.1982728891e+00
1.1986364241e+00
1.1990191375e+00
1.1994138665e+00
1.1998137071e+00
1.2002121814e+00
1.2006034121e+00
1.2009822267e+00
1.2013442594e+00
1.2016859819e+00
1.2020047297e+00
1.2022986659e+00
1.2025667451e+00
1.2028086279e+00
1.2030246046e+00
1.2032154843e+00
1.2033825026e+00
1.2035272082e+00
1.2036513756e+00
1.2037569058e+00
1.2038457576e+00
1.2039198727e+00
1.2039811310e+00
1.2040313026e+00
1.2040720264e+00
1.2041047854e+00
1.2041309049e+00
1.2041515452e+00
1.2041677121e+00
1.2041802608e+00
1.2041899130e+00
1.2041972663e+00
1.2042028130e+00
1.2042069507e+00
1.2042100000e+00
1.2042122138e+00
1.2042137927e+00
1.2042148920e+00
1.2042156337e+00
1.2042161119e+00
1.2042164020e+00
1.2042165641e+00
1.2042166506e+00
1.2042167082e+00
1.2042167842e+00
1.2042169283e+00
1.2042171971e+00
1.2042176560e+00
1.2042183822e+00
1.2042194653e+00
1.2042210091e+00
1.2042231294e+00
1.2042259532e+00
1.2042296137e+00
1.2042342451e+00
1.2042399746e+00
1.2042469131e+00
1.2042551450e+00
1.2042647171e+00
1.2042756280e+00
1.2042878193e+00
1.2043011685e+00
1.2043154864e+00
1.2043305181e+00
1.2043459488e+00
1.2043614150e+00
1.2043765192e+00
1.2043908491e+00
1.2044039983e+00
1.2044155884e+00
1.2044252890e+00
1.2044328370e+00
1.2044380497e+00
1.2044408347e+00
1.2044411926e+00
1.2044392161e+00
1.2044350807e+00
1.2044290344e+00
1.2044213807e+00
1.2044124626e+00
1.2044026421e+00
1.2043922857e+00
1.2043817459e+00
1.2043713526e+00
1.2043614033e+00
1.2043521652e+00
1.2043438765e+00
1.2043367588e+00
1.2043310246e+00
1.2043268858e+00
1.2043245400e+00
1.2043241328e+00
1.2043308252e+00
1.1968728615e+00
1.1969524984e+00
1.1970649638e+00
1.1972315802e+00
1.1974484984e+00
1.1977107546e+00
1.1980125165e+00
1.1983472823e+00
1.1987081375e+00
1.1990879585e+00
1.1994796671e+00
1.1998764109e+00
1.2002717801e+00
1.2006599349e+00
1.2010357560e+00
1.2013949023e+00
1.2017338840e+00
1.2020500491e+00
1.2023415852e+00
1.2026074486e+00
1.2028473122e+00
1.2030614591e+00
1.2032507016e+00
1.2034162616e+00
1.2035596846e+00
1.2036827280e+00
1.2037872857e+00
1.2038752981e+00
1.2039486987e+00
1.2040093495e+00
1.2040590123e+00
1.2040993101e+00
1.2041317189e+00
1.2041575505e+00
1.2041779595e+00
1.2041939408e+00
1.2042063457e+00
1.2042158873e+00
1.2042231609e+00
1.2042286521e+00
1.2042327572e+00
1.2042357919e+00
1.2042380089e+00
1.2042396047e+00
1.2042407349e+00
1.2042415186e+00
1.2042420503e+00
1.2042424027e+00
1.2042426363e+00
1.2042428006e+00
1.2042429419e+00
1.2042431039e+00
1.2042433336e+00
1.2042436820e+00
1.2042442080e+00
1.2042449789e+00
1.2042460722e+00
1.2042475748e+00
1.2042495825e+00
1.2042521965e+00
1.2042555203e+00
1.2042596531e+00
1.2042646838e+00
1.2042706824e+00
1.2042776917e+00
1.2042857187e+00
1.2042947276e+00
1.2043046338e+00
1.2043153008e+00
1.2043265407e+00
1.2043381183e+00
1.2043497584e+00
1.2043611580e+00
1.2043720000e+00
1.2043819701e+00
1.2043907732e+00
1.2043981502e+00
1.2044038923e+00
1.2044078518e+00
1.2044099505e+00
1.2044101813e+00
1.2044086078e+00
1.2044053572e+00
1.2044006129e+00
1.2043946006e+00
1.2043875773e+00
1.2043798153e+00
1.2043715918e+00
1.2043631747e+00
1.2043548166e+00
1.2043467457e+00
1.2043391666e+00
1.2043322577e+00
1.2043261794e+00
1.2043210769e+00
1.2043170915e+00
1.2043143641e+00
1.2043130432e+00
1.2043132852e+00
1.2043191623e+00
1.1969839919e+00
1.1970649638e+00
1.1971765475e+00
1.1973411392e+00
1.1975550343e+00
1.1978134321e+00
1.1981106268e+00
1.1984402650e+00
1.1987955438e+00
1.1991694791e+00
1.1995550933e+00
1.1999456615e+00
1.2003348597e+00
1.2007169562e+00
1.2010868970e+00
1.2014404241e+00
1.2017740884e+00
1.2020852933e+00
1.2023722431e+00
1.2026339225e+00
1.2028700000e+00
1.2030807650e+00
1.2032670089e+00
1.2034299440e+00
1.2035710848e+00
1.2036921691e+00
1.2037950552e+00
1.2038816602e+00
1.2039538816e+00
1.2040135584e+00
1.2040624197e+00
1.2041020679e+00
1.2041339516e+00
1.2041593660e+00
1.2041794436e+00
1.2041951673e+00
1.2042073712e+00
1.2042167605e+00
1.2042239178e+00
1.2042293237e+00
1.2042333655e+00
1.2042363564e+00
1.2042385426e+00
1.2042401201e+00
1.2042412400e+00
1.2042420220e+00
1.2042425578e+00
1.2042429218e+00
1.2042431734e+00
1.2042433647e+00
1.2042435426e+00
1.2042437544e+00
1.2042440496e+00
1.2042444841e+00
1.2042451210e+00
1.2042460337e+00
1.2042473046e+00
1.2042490267e+00
1.2042513002e+00
1.2042542304e+00
1.2042579218e+00
1.2042624727e+00
1.2042679666e+00
1.2042744646e+00
1.2042819954e+00
1.2042905477e+00
1.2043000625e+00
1.2043104289e+00
1.2043214816e+00
1.2043330039e+00
1.2043447327e+00
1.2043563697e+00
1.2043675939e+00
1.2043780788e+00
1.2043875091e+00
1.2043955992e+00
1.2044021087e+00
1.2044068562e+00
1.2044097289e+00
1.2044106872e+00
1.2044097656e+00
1.2044070670e+00
1.2044027564e+00
1.2043970468e+00
1.2043901887e+00
1.2043824533e+00
1.2043741212e+00
1.2043654677e+00
1.2043567554e+00
1.2043482235e+00
1.2043400871e+00
1.2043325325e+00
1.2043257225e+00
1.2043197969e+00
1.2043148825e+00
1.2043110957e+00
1.2043085526e+00
1.2043073709e+00
1.2043076803e+00
1.2043117092e+00
1.1971505040e+00
1.1972315802e+00
1.1973411392e+00
1.1975023282e+00
1.1977115579e+00
1.1979641511e+00
1.1982545775e+00
1.1985766329e+00
1.1989237065e+00
1.1992889663e+00
1.1996656240e+00
1.2000470950e+00
1.2004272254e+00
1.2008003996e+00
1.2011617015e+00
1.2015069553e+00
1.2018328108e+00
1.2021367169e+00
1.2024169360e+00
1.2026724636e+00
1.2029029900e+00
1.2031087873e+00
1.2032906402e+00
1.2034497242e+00
1.2035875279e+00
1.2037057415e+00
1.2038061879e+00
1.2038907330e+00
1.2039612367e+00
1.2040194895e+00
1.2040671855e+00
1.2041058849e+00
1.2041370066e+00
1.2041618114e+00
1.2041814090e+00
1.2041967553e+00
1.2042086683e+00
1.2042178330e+00
1.2042248212e+00
1.2042300992e+00
1.2042340480e+00
1.2042369705e+00
1.2042391096e+00
1.2042406546e+00
1.2042417554e+00
1.2042425272e+00
1.2042430622e+00
1.2042434325e+00
1.2042436988e+00
1.2042439129e+00
1.2042441242e+00
1.2042443814e+00
1.2042447382e+00
1.2042452532e+00
1.2042459952e+00
1.2042470417e+00
1.2042484815e+00
1.2042504122e+00
1.2042529394e+00
1.2042561713e+00
1.2042602148e+00
1.2042651664e+00
1.2042711059e+00
1.2042780851e+00
1.2042861203e+00
1.2042951820e+00
1.2043051899e+00
1.2043160074e+00
1.2043274420e+00
1.2043392486e+00
1.2043511377e+00
1.2043627876e+00
1.2043738602e+00
1.2043840184e+00
1.2043929458e+00
1.2044003649e+00
1.2044060525e+00
1.2044098533e+00
1.2044116866e+00
1.2044115508e+00
1.2044095188e+00
1.2044057334e+00
1.2044003940e+00
1.2043937451e+00
1.2043860595e+00
1.2043776252e+00
1.2043687293e+00
1.2043596485e+00
1.2043506375e+00
1.2043419255e+00
1.2043337105e+00
1.2043261623e+00
1.2043194219e+00
1.2043136095e+00
1.2043088263e+00
1.2043051641e+00
1.2043027072e+00
1.2043015400e+00
1.2043017480e+00
1.2043033987e+00
1.1973682234e+00
1.1974484984e+00
1.1975550343e+00
1.1977115579e+00
1.1979145625e+00
1.1981595378e+00
1.1984411142e+00
1.1987533111e+00
1.1990897081e+00
1.1994437147e+00
1.1998087333e+00
1.2001784109e+00
1.2005467630e+00
1.2009083728e+00
1.2012584561e+00
1.2015929891e+00
1.2019087071e+00
1.2022031579e+00
1.2024746421e+00
1.2027222038e+00
1.2029455296e+00
1.2031448980e+00
1.2033210583e+00
1.2034751617e+00
1.2036086419e+00
1.2037231461e+00
1.2038204335e+00
1.2039023197e+00
1.2039706007e+00
1.2040270175e+00
1.2040732062e+00
1.2041106837e+00
1.2041408200e+00
1.2041648407e+00
1.2041838170e+00
1.2041986785e+00
1.2042102140e+00
1.2042190901e+00
1.2042258578e+00
1.2042309713e+00
1.2042347970e+00
1.2042376307e+00
1.2042397056e+00
1.2042412070e+00
1.2042422785e+00
1.2042430342e+00
1.2042435623e+00
1.2042439351e+00
1.2042442117e+00
1.2042444456e+00
1.2042446861e+00
1.2042449854e+00
1.2042453985e+00
1.2042459891e+00
1.2042468290e+00
1.2042480017e+00
1.2042496004e+00
1.2042517286e+00
1.2042544960e+00
1.2042580150e+00
1.2042623937e+00
1.2042677286e+00
1.2042740949e+00
1.2042815372e+00
1.2042900590e+00
1.2042996150e+00
1.2043101037e+00
1.2043213648e+00
1.2043331790e+00
1.2043452745e+00
1.2043573355e+00
1.2043690179e+00
1.2043799657e+00
1.2043898315e+00
1.2043982966e+00
1.2044050899e+00
1.2044100043e+00
1.2044129079e+00
1.2044137515e+00
1.2044125678e+00
1.2044094684e+00
1.2044046324e+00
1.2043982948e+00
1.2043907289e+00
1.2043822322e+00
1.2043731070e+00
1.2043636504e+00
1.2043541383e+00
1.2043448212e+00
1.2043359153e+00
1.2043276050e+00
1.2043200394e+00
1.2043133404e+00
1.2043076036e+00
1.2043029074e+00
1.2042993151e+00
1.2042968835e+00
1.2042956620e+00
1.2042956985e+00
1.2042947764e+00
1.1976319676e+00
1.1977107546e+00
1.1978134321e+00
1.1979641511e+00
1.1981595378e+00
1.1983952300e+00
1.1986660885e+00
1.1989663424e+00
1.1992898485e+00
1.1996302476e+00
1.1999812267e+00
1.2003366532e+00
1.2006908023e+00
1.2010384423e+00
1.2013750003e+00
1.2016965857e+00
1.2020000840e+00
1.2022831185e+00
1.2025440764e+00
1.2027820228e+00
1.2029966742e+00
1.2031882849e+00
1.2033575903e+00
1.2035056862e+00
1.2036339626e+00
1.2037439943e+00
1.2038374818e+00
1.2039161633e+00
1.2039817726e+00
1.2040359773e+00
1.2040803559e+00
1.2041163613e+00
1.2041453152e+00
1.2041683912e+00
1.2041866228e+00
1.2042008994e+00
1.2042119828e+00
1.2042205102e+00
1.2042270138e+00
1.2042319274e+00
1.2042356054e+00
1.2042383299e+00
1.2042403270e+00
1.2042417730e+00
1.2042428081e+00
1.2042435405e+00
1.2042440575e+00
1.2042444280e+00
1.2042447120e+00
1.2042449615e+00
1.2042452283e+00
1.2042455649e+00
1.2042460302e+00
1.2042466900e+00
1.2042476214e+00
1.2042489114e+00
1.2042506592e+00
1.2042529726e+00
1.2042559666e+00
1.2042597566e+00
1.2042644535e+00
1.2042701529e+00
1.2042769272e+00
1.2042848133e+00
1.2042938044e+00
1.2043038392e+00
1.2043147974e+00
1.2043264951e+00
1.2043386886e+00
1.2043510792e+00
1.2043633267e+00
1.2043750638e+00
1.2043859172e+00
1.2043955282e+00
1.2044035747e+00
1.2044097909e+00
1.2044139833e+00
1.2044160424e+00
1.2044159468e+00
1.2044137634e+00
1.2044096388e+00
1.2044037890e+00
1.2043964817e+00
1.2043880207e+00
1.2043787253e+00
1.2043689159e+00
1.2043588967e+00
1.2043489472e+00
1.2043393111e+00
1.2043301960e+00
1.2043217690e+00
1.2043141630e+00
1.2043074770e+00
1.2043017858e+00
1.2042971422e+00
1.2042935862e+00
1.2042911466e+00
1.2042898470e+00
1.2042897039e+00
1.2042862240e+00
1.1979357282e+00
1.1980125165e+00
1.1981106268e+00
1.1982545775e+00
1.1984411142e+00
1.1986660885e+00
1.1989245706e+00
1.1992110817e+00
1.1995197349e+00
1.1998444947e+00
1.2001793115e+00
1.2005183668e+00
1.2008561724e+00
1.2011877680e+00
1.2015087662e+00
1.2018154838e+00
1.2021049275e+00
1.2023748550e+00
1.2026237089e+00
1.2028506183e+00
1.2030552974e+00
1.2032380062e+00
1.2033994332e+00
1.2035406375e+00
1.2036629349e+00
1.2037678382e+00
1.2038569609e+00
1.2039319695e+00
1.2039945107e+00
1.2040461815e+00
1.2040884817e+00
1.2041228021e+00
1.2041503983e+00
1.2041723939e+00
1.2041897700e+00
1.2042033785e+00
1.2042139419e+00
1.2042220711e+00
1.2042282702e+00
1.2042329556e+00
1.2042364624e+00
1.2042390620e+00
1.2042409677e+00
1.2042423499e+00
1.2042433405e+00
1.2042440450e+00
1.2042445455e+00
1.2042449110e+00
1.2042451982e+00
1.2042454607e+00
1.2042457496e+00
1.2042461200e+00
1.2042466319e+00
1.2042473556e+00
1.2042483706e+00
1.2042497695e+00
1.2042516552e+00
1.2042541416e+00
1.2042573472e+00
1.2042613922e+00
1.2042663888e+00
1.2042724337e+00
1.2042795958e+00
1.2042879068e+00
1.2042973488e+00
1.2043078475e+00
1.2043192634e+00
1.2043313922e+00
1.2043439653e+00
1.2043566597e+00
1.2043691097e+00
1.2043809267e+00
1.2043917188e+00
1.2044011158e+00
1.2044087907e+00
1.2044144813e+00
1.2044180063e+00
1.2044192753e+00
1.2044182940e+00
1.2044151597e+00
1.2044100540e+00
1.2044032265e+00
1.2043949786e+00
1.2043856418e+00
1.2043755602e+00
1.2043650695e+00
1.2043544854e+00
1.2043440881e+00
1.2043341194e+00
1.2043247755e+00
1.2043162114e+00
1.2043085404e+00
1.2043018435e+00
1.2042961718e+00
1.2042915578e+00
1.2042880171e+00
1.2042855580e+00
1.2042841811e+00
1.2042838850e+00
1.2042779681e+00
1.1982728891e+00
1.1983472823e+00
1.1984402650e+00
1.1985766329e+00
1.1987533111e+00
1.1989663424e+00
1.1992110817e+00
1.1994823138e+00
1.1997744959e+00
1.2000818856e+00
1.2003987896e+00
1.2007196709e+00
1.2010393679e+00
1.2013531577e+00
1.2016569189e+00
1.2019471403e+00
1.2022210169e+00
1.2024764048e+00
1.2027118544e+00
1.2029265233e+00
1.2031201612e+00
1.2032929993e+00
1.2034457055e+00
1.2035792702e+00
1.2036949512e+00
1.2037941705e+00
1.2038784651e+00
1.2039494037e+00
1.2040085525e+00
1.2040574160e+00
1.2040974194e+00
1.2041298731e+00
1.2041559700e+00
1.2041767683e+00
1.2041932004e+00
1.2042060681e+00
1.2042160583e+00
1.2042237453e+00
1.2042296091e+00
1.2042340403e+00
1.2042373587e+00
1.2042398183e+00
1.2042416232e+00
1.2042429326e+00
1.2042438736e+00
1.2042445446e+00
1.2042450259e+00
1.2042453820e+00
1.2042456702e+00
1.2042459419e+00
1.2042462499e+00
1.2042466493e+00
1.2042472036e+00
1.2042479843e+00
1.2042490759e+00
1.2042505739e+00
1.2042525870e+00
1.2042552327e+00
1.2042586351e+00
1.2042629174e+00
1.2042681954e+00
1.2042745652e+00
1.2042820950e+00
1.2042908102e+00
1.2043006852e+00
1.2043116316e+00
1.2043234946e+00
1.2043360485e+00
1.2043490032e+00
1.2043620104e+00
1.2043746816e+00
1.2043866052e+00
1.2043973721e+00
1.2044065985e+00
1.2044139519e+00
1.2044191718e+00
1.2044220864e+00
1.2044226231e+00
1.2044208110e+00
1.2044167774e+00
1.2044107350e+00
1.2044029675e+00
1.2043938071e+00
1.2043836150e+00
1.2043727572e+00
1.2043615887e+00
1.2043504338e+00
1.2043395786e+00
1.2043292605e+00
1.2043196694e+00
1.2043109454e+00
1.2043031875e+00
1.2042964560e+00
1.2042907841e+00
1.2042861815e+00
1.2042826459e+00
1.2042801652e+00
1.2042787258e+00
1.2042783120e+00
1.2042701209e+00
1.1986364241e+00
1.1987081375e+00
1.1987955438e+00
1.1989237065e+00
1.1990897081e+00
1.1992898485e+00
1.1995197349e+00
1.1997744959e+00
1.2000488950e+00
1.2003375709e+00
1.2006351458e+00
1.2009364535e+00
1.2012366168e+00
1.2015312335e+00
1.2018164058e+00
1.2020888672e+00
1.2023459593e+00
1.2025856963e+00
1.2028066962e+00
1.2030081912e+00
1.2031899291e+00
1.2033521459e+00
1.2034954550e+00
1.2036208011e+00
1.2037293539e+00
1.2038224604e+00
1.2039015542e+00
1.2039681173e+00
1.2040236125e+00
1.2040694592e+00
1.2041069891e+00
1.2041374379e+00
1.2041619200e+00
1.2041814333e+00
1.2041968484e+00
1.2042089216e+00
1.2042182938e+00
1.2042255071e+00
1.2042310087e+00
1.2042351679e+00
1.2042382820e+00
1.2042405918e+00
1.2042422865e+00
1.2042435180e+00
1.2042444036e+00
1.2042450382e+00
1.2042454961e+00
1.2042458409e+00
1.2042461264e+00
1.2042464050e+00
1.2042467281e+00
1.2042471531e+00
1.2042477440e+00
1.2042485760e+00
1.2042497358e+00
1.2042513239e+00
1.2042534523e+00
1.2042562441e+00
1.2042598271e+00
1.2042643293e+00
1.2042698683e+00
1.2042765428e+00
1.2042844182e+00
1.2042935174e+00
1.2043038056e+00
1.2043151844e+00
1.2043274824e+00
1.2043404566e+00
1.2043537942e+00
1.2043671251e+00
1.2043800366e+00
1.2043920963e+00
1.2044028755e+00
1.2044119776e+00
1.2044190623e+00
1.2044238690e+00
1.2044262335e+00
1.2044260979e+00
1.2044235133e+00
1.2044186330e+00
1.2044117012e+00
1.2044030318e+00
1.2043929890e+00
1.2043819608e+00
1.2043703385e+00
1.2043584932e+00
1.2043467629e+00
1.2043354370e+00
1.2043247536e+00
1.2043148941e+00
1.2043059893e+00
1.2042981215e+00
1.2042913355e+00
1.2042856441e+00
1.2042810405e+00
1.2042775026e+00
1.2042750043e+00
1.2042735174e+00
1.2042730205e+00
1.2042627175e+00
1.1990191375e+00
1.1990879585e+00
1.1991694791e+00
1.1992889663e+00
1.1994437147e+00
1.1996302476e+00
1.1998444947e+00
1.2000818856e+00
1.2003375709e+00
1.2006065229e+00
1.2008837640e+00
1.2011644492e+00
1.2014440680e+00
1.2017184894e+00
1.2019841143e+00
1.2022378727e+00
1.2024773177e+00
1.2027005761e+00
1.2029063860e+00
1.2030940132e+00
1.2032632437e+00
1.2034142819e+00
1.2035477162e+00
1.2036644138e+00
1.2037654781e+00
1.2038521530e+00
1.2039257846e+00
1.2039877449e+00
1.2040394041e+00
1.2040820776e+00
1.2041170117e+00
1.2041453516e+00
1.2041681401e+00
1.2041863015e+00
1.2042006506e+00
1.2042118877e+00
1.2042206127e+00
1.2042273269e+00
1.2042324496e+00
1.2042363216e+00
1.2042392222e+00
1.2042413731e+00
1.2042429528e+00
1.2042441006e+00
1.2042449283e+00
1.2042455225e+00
1.2042459555e+00
1.2042462857e+00
1.2042465669e+00
1.2042468488e+00
1.2042471843e+00
1.2042476302e+00
1.2042482532e+00
1.2042491296e+00
1.2042503502e+00
1.2042520180e+00
1.2042542503e+00
1.2042571736e+00
1.2042609211e+00
1.2042656241e+00
1.2042714044e+00
1.2042783611e+00
1.2042865607e+00
1.2042960213e+00
1.2043067035e+00
1.2043184973e+00
1.2043312190e+00
1.2043446072e+00
1.2043583304e+00
1.2043719954e+00
1.2043851681e+00
1.2043973936e+00
1.2044082253e+00
1.2044172512e+00
1.2044241225e+00
1.2044285763e+00
1.2044304534e+00
1.2044297088e+00
1.2044264118e+00
1.2044207412e+00
1.2044129680e+00
1.2044034376e+00
1.2043925426e+00
1.2043807000e+00
1.2043683234e+00
1.2043558044e+00
1.2043434920e+00
1.2043316840e+00
1.2043206171e+00
1.2043104699e+00
1.2043013614e+00
1.2042933627e+00
1.2042865011e+00
1.2042807744e+00
1.2042761566e+00
1.2042726117e+00
1.2042700974e+00
1.2042685768e+00
1.2042680204e+00
1.2042557536e+00
1.1994138665e+00
1.1994796671e+00
1.1995550933e+00
1.1996656240e+00
1.1998087333e+00
1.1999812267e+00
1.2001793115e+00
1.2003987896e+00
1.2006351458e+00
1.2008837640e+00
1.2011400106e+00
1.2013994404e+00
1.2016578530e+00
1.2019114630e+00
1.2021569154e+00
1.2023914036e+00
1.2026126408e+00
1.2028189234e+00
1.2030090639e+00
1.2031824070e+00
1.2033387377e+00
1.2034782639e+00
1.2036015152e+00
1.2037093085e+00
1.2038026517e+00
1.2038827064e+00
1.2039507071e+00
1.2040079308e+00
1.2040556361e+00
1.2040950453e+00
1.2041273040e+00
1.2041534756e+00
1.2041745183e+00
1.2041912905e+00
1.2042045406e+00
1.2042149191e+00
1.2042229764e+00
1.2042291786e+00
1.2042339098e+00
1.2042374875e+00
1.2042401670e+00
1.2042421553e+00
1.2042436152e+00
1.2042446774e+00
1.2042454436e+00
1.2042459965e+00
1.2042464016e+00
1.2042467161e+00
1.2042469900e+00
1.2042472734e+00
1.2042476175e+00
1.2042480809e+00
1.2042487302e+00
1.2042496452e+00
1.2042509178e+00
1.2042526559e+00
1.2042549793e+00
1.2042580201e+00
1.2042619148e+00
1.2042668000e+00
1.2042727997e+00
1.2042800168e+00
1.2042885166e+00
1.2042983168e+00
1.2043093712e+00
1.2043215631e+00
1.2043346951e+00
1.2043484918e+00
1.2043626017e+00
1.2043766124e+00
1.2043900667e+00
1.2044024897e+00
1.2044134145e+00
1.2044224143e+00
1.2044291295e+00
1.2044332930e+00
1.2044347485e+00
1.2044334602e+00
1.2044295147e+00
1.2044231114e+00
1.2044145486e+00
1.2044041988e+00
1.2043924848e+00
1.2043798492e+00
1.2043667313e+00
1.2043535403e+00
1.2043406412e+00
1.2043283378e+00
1.2043168713e+00
1.2043064146e+00
1.2042970814e+00
1.2042889288e+00
1.2042819724e+00
1.2042761922e+00
1.2042715487e+00
1.2042679887e+00
1.2042654591e+00
1.2042639108e+00
1.2042633102e+00
1.2042492034e+00
1.1998137071e+00
1.1998764109e+00
1.1999456615e+00
1.2000470950e+00
1.2001784109e+00
1.2003366532e+00
1.2005183668e+00
1.2007196709e+00
1.2009364535e+00
1.2011644492e+00
1.2013994404e+00
1.2016373189e+00
1.2018742656e+00
1.2021067797e+00
1.2023318159e+00
1.2025467742e+00
1.2027495866e+00
1.2029386680e+00
1.2031129547e+00
1.2032718268e+00
1.2034151082e+00
1.2035429737e+00
1.2036559261e+00
1.2037547015e+00
1.2038402374e+00
1.2039135885e+00
1.2039758969e+00
1.2040283250e+00
1.2040720345e+00
1.2041081391e+00
1.2041376950e+00
1.2041616713e+00
1.2041809513e+00
1.2041963170e+00
1.2042084581e+00
1.2042179668e+00
1.2042253509e+00
1.2042310341e+00
1.2042353711e+00
1.2042386499e+00
1.2042411070e+00
1.2042429295e+00
1.2042442690e+00
1.2042452433e+00
1.2042459479e+00
1.2042464571e+00
1.2042468339e+00
1.2042471304e+00
1.2042473959e+00
1.2042476777e+00
1.2042480280e+00
1.2042485043e+00
1.2042491756e+00
1.2042501219e+00
1.2042514391e+00
1.2042532365e+00
1.2042556393e+00
1.2042587820e+00
1.2042628071e+00
1.2042678541e+00
1.2042740522e+00
1.2042815055e+00
1.2042902823e+00
1.2043003975e+00
1.2043118030e+00
1.2043243734e+00
1.2043379028e+00
1.2043521001e+00
1.2043665985e+00
1.2043809648e+00
1.2043947222e+00
1.2044073736e+00