# vtk DataFile Version 2.0
Blank
ASCII
DATASET STRUCTURED_GRID
DIMENSIONS 101 101 2
POINTS 20402 float
0.0000000000e+00 0.0000000000e+00 0.0000000000e+00
1.0000000000e-02 0.0000000000e+00 0.0000000000e+00
2.0000000000e-02 0.0000000000e+00 0.0000000000e+00
3.0000000000e-02 0.0000000000e+00 0.0000000000e+00
4.0000000000e-02 0.0000000000e+00 0.0000000000e+00
5.0000000000e-02 0.0000000000e+00 0.0000000000e+00
6.0000000000e-02 0.0000000000e+00 0.0000000000e+00
7.0000000000e-02 0.0000000000e+00 0.0000000000e+00
8.0000000000e-02 0.0000000000e+00 0.0000000000e+00
9.0000000000e-02 0.0000000000e+00 0.0000000000e+00
1.0000000000e-01 0.0000000000e+00 0.0000000000e+00
1.1000000000e-01 0.0000000000e+00 0.0000000000e+00
1.2000000000e-01 0.0000000000e+00 0.0000000000e+00
1.3000000000e-01 0.0000000000e+00 0.0000000000e+00
1.4000000000e-01 0.0000000000e+00 0.0000000000e+00
1.5000000000e-01 0.0000000000e+00 0.0000000000e+00
1.6000000000e-01 0.0000000000e+00 0.0000000000e+00
1.7000000000e-01 0.0000000000e+00 0.0000000000e+00
1.8000000000e-01 0.0000000000e+00 0.0000000000e+00
1.9000000000e-01 0.0000000000e+00 0.0000000000e+00
2.0000000000e-01 0.0000000000e+00 0.0000000000e+00
2.1000000000e-01 0.0000000000e+00 0.0000000000e+00
2.2000000000e-01 0.0000000000e+00 0.0000000000e+00
2.3000000000e-01 0.0000000000e+00 0.0000000000e+00
2.4000000000e-01 0.0000000000e+00 0.0000000000e+00
2.5000000000e-01 0.0000000000e+00 0.0000000000e+00
2.6000000000e-01 0.0000000000e+00 0.0000000000e+00
2.7000000000e-01 0.0000000000e+00 0.0000000000e+00
2.8000000000e-01 0.0000000000e+00 0.0000000000e+00
2.9000000000e-01 0.0000000000e+00 0.0000000000e+00
3.0000000000e-01 0.0000000000e+00 0.0000000000e+00
3.1000000000e-01 0.0000000000e+00 0.0000000000e+00
3.2000000000e-01 0.0000000000e+00 0.0000000000e+00
3.3000000000e-01 0.0000000000e+00 0.0000000000e+00
3.4000000000e-01 0.0000000000e+00 0.0000000000e+00
3.5000000000e-01 0.0000000000e+00 0.0000000000e+00
3.6000000000e-01 0.0000000000e+00 0.0000000000e+00
3.7000000000e-01 0.0000000000e+00 0.0000000000e+00
3.8000000000e-01 0.0000000000e+00 0.0000000000e+00
3.9000000000e-01 0.0000000000e+00 0.0000000000e+00
4.0000000000e-01 0.0000000000e+00 0.0000000000e+00
4.1000000000e-01 0.0000000000e+00 0.0000000000e+00
4.2000000000e-01 0.0000000000e+00 0.0000000000e+00
4.3000000000e-01 0.0000000000e+00 0.0000000000e+00
4.4000000000e-01 0.0000000000e+00 0.0000000000e+00
4.5000000000e-01 0.0000000000e+00 0.0000000000e+00
4.6000000000e-01 0.0000000000e+00 0.0000000000e+00
4.7000000000e-01 0.0000000000e+00 0.0000000000e+00
4.8000000000e-01 0.0000000000e+00 0.0000000000e+00
4.9000000000e-01 0.0000000000e+00 0.0000000000e+00
5.0000000000e-01 0.0000000000e+00 0.0000000000e+00
5.1000000000e-01 0.0000000000e+00 0.0000000000e+00
5.2000000000e-01 0.0000000000e+00 0.0000000000e+00
5.3000000000e-01 0.0000000000e+00 0.0000000000e+00
5.4000000000e-01 0.0000000000e+00 0.0000000000e+00
5.5000000000e-01 0.0000000000e+00 0.0000000000e+00
5.6000000000e-01 0.0000000000e+00 0.0000000000e+00
5.7000000000e-01 0.0000000000e+00 0.0000000000e+00
5.8000000000e-01 0.0000000000e+00 0.0000000000e+00
5.9000000000e-01 0.0000000000e+00 0.0000000000e+00
6.0000000000e-01 0.0000000000e+00 0.0000000000e+00
6.1000000000e-01 0.0000000000e+00 0.0000000000e+00
6.2000000000e-01 0.0000000000e+00 0.0000000000e+00
6.3000000000e-01 0.0000000000e+00 0.0000000000e+00
6.4000000000e-01 0.0000000000e+00 0.0000000000e+00
6.5000000000e-01 0.0000000000e+00 0.0000000000e+00
6.6000000000e-01 0.0000000000e+00 0.0000000000e+00
6.7000000000e-01 0.0000000000e+00 0.0000000000e+00
6.8000000000e-01 0.0000000000e+00 0.0000000000e+00
6.9000000000e-01 0.0000000000e+00 0.0000000000e+00
7.0000000000e-01 0.0000000000e+00 0.0000000000e+00
7.1000000000e-01 0.0000000000e+00 0.0000000000e+00
7.2000000000e-01 0.0000000000e+00 0.0000000000e+00
7.3000000000e-01 0.0000000000e+00 0.0000000000e+00
7.4000000000e-01 0.0000000000e+00 0.0000000000e+00
7.5000000000e-01 0.0000000000e+00 0.0000000000e+00
7.6000000000e-01 0.0000000000e+00 0.0000000000e+00
7.7000000000e-01 0.0000000000e+00 0.0000000000e+00
7.8000000000e-01 0.0000000000e+00 0.0000000000e+00
7.9000000000e-01 0.0000000000e+00 0.0000000000e+00
8.0000000000e-01 0.0000000000e+00 0.0000000000e+00
8.1000000000e-01 0.0000000000e+00 0.0000000000e+00
8.2000000000e-01 0.0000000000e+00 0.0000000000e+00
8.3000000000e-01 0.0000000000e+00 0.0000000000e+00
8.4000000000e-01 0.0000000000e+00 0.0000000000e+00
8.5000000000e-01 0.0000000000e+00 0.0000000000e+00
8.6000000000e-01 0.0000000000e+00 0.0000000000e+00
8.7000000000e-01 0.0000000000e+00 0.0000000000e+00
8.8000000000e-01 0.0000000000e+00 0.0000000000e+00
8.9000000000e-01 0.0000000000e+00 0.0000000000e+00
9.0000000000e-01 0.0000000000e+00 0.0000000000e+00
9.1000000000e-01 0.0000000000e+00 0.0000000000e+00
9.2000000000e-01 0.0000000000e+00 0.0000000000e+00
9.3000000000e-01 0.0000000000e+00 0.0000000000e+00
9.4000000000e-01 0.0000000000e+00 0.0000000000e+00
9.5000000000e-01 0.0000000000e+00 0.0000000000e+00
9.6000000000e-01 0.0000000000e+00 0.0000000000e+00
9.7000000000e-01 0.0000000000e+00 0.0000000000e+00
9.8000000000e-01 0.0000000000e+00 0.0000000000e+00
9.9000000000e-01 0.0000000000e+00 0.0000000000e+00
1.0000000000e+00 0.0000000000e+00 0.0000000000e+00
0.0000000000e+00 1.0000000000e-02 0.0000000000e+00
1.0000000000e-02 1.0000000000e-02 0.0000000000e+00
2.0000000000e-02 1.0000000000e-02 0.0000000000e+00
3.0000000000e-02 1.0000000000e-02 0.0000000000e+00
4.0000000000e-02 1.0000000000e-02 0.0000000000e+00
5.0000000000e-02 1.0000000000e-02 0.0000000000e+00
6.0000000000e-02 1.0000000000e-02 0.0000000000e+00
7.0000000000e-02 1.0000000000e-02 0.0000000000e+00
8.0000000000e-02 1.0000000000e-02 0.0000000000e+00
9.0000000000e-02 1.0000000000e-02 0.0000000000e+00
1.0000000000e-01 1.0000000000e-02 0.0000000000e+00
1.1000000000e-01 1.0000000000e-02 0.0000000000e+00
1.2000000000e-01 1.0000000000e-02 0.0000000000e+00
1.3000000000e-01 1.0000000000e-02 0.0000000000e+00
1.4000000000e-01 1.0000000000e-02 0.0000000000e+00
1.5000000000e-01 1.0000000000e-02 0.0000000000e+00
1.6000000000e-01 1.0000000000e-02 0.0000000000e+00
1.7000000000e-01 1.0000000000e-02 0.0000000000e+00
1.8000000000e-01 1.0000000000e-02 0.0000000000e+00
1.9000000000e-01 1.0000000000e-02 0.0000000000e+00
2.0000000000e-01 1.0000000000e-02 0.0000000000e+00
2.1000000000e-01 1.0000000000e-02 0.0000000000e+00
2.2000000000e-01 1.0000000000e-02 0.0000000000e+00
2.3000000000e-01 1.0000000000e-02 0.0000000000e+00
2.4000000000e-01 1.0000000000e-02 0.0000000000e+00
2.5000000000e-01 1.0000000000e-02 0.0000000000e+00
2.6000000000e-01 1.0000000000e-02 0.0000000000e+00
2.7000000000e-01 1.0000000000e-02 0.0000000000e+00
2.8000000000e-01 1.0000000000e-02 0.0000000000e+00
2.9000000000e-01 1.0000000000e-02 0.0000000000e+00
3.0000000000e-01 1.0000000000e-02 0.0000000000e+00
3.1000000000e-01 1.0000000000e-02 0.0000000000e+00
3.2000000000e-01 1.0000000000e-02 0.0000000000e+00
3.3000000000e-01 1.0000000000e-02 0.0000000000e+00
3.4000000000e-01 1.0000000000e-02 0.0000000000e+00
3.5000000000e-01 1.0000000000e-02 0.0000000000e+00
3.6000000000e-01 1.0000000000e-02 0.0000000000e+00
3.7000000000e-01 1.0000000000e-02 0.0000000000e+00
3.8000000000e-01 1.0000000000e-02 0.0000000000e+00
3.9000000000e-01 1.0000000000e-02 0.0000000000e+00
4.0000000000e-01 1.0000000000e-02 0.0000000000e+00
4.1000000000e-01 1.0000000000e-02 0.0000000000e+00
4.2000000000e-01 1.0000000000e-02 0.0000000000e+00
4.3000000000e-01 1.0000000000e-02 0.0000000000e+00
4.4000000000e-01 1.0000000000e-02 0.0000000000e+00
4.5000000000e-01 1.0000000000e-02 0.0000000000e+00
4.6000000000e-01 1.0000000000e-02 0.0000000000e+00
4.7000000000e-01 1.0000000000e-02 0.0000000000e+00
4.8000000000e-01 1.0000000000e-02 0.0000000000e+00
4.9000000000e-01 1.0000000000e-02 0.0000000000e+00
5.0000000000e-01 1.0000000000e-02 0.0000000000e+00
5.1000000000e-01 1.0000000000e-02 0.0000000000e+00
5.2000000000e-01 1.0000000000e-02 0.0000000000e+00
5.3000000000e-01 1.0000000000e-02 0.0000000000e+00
5.4000000000e-01 1.0000000000e-02 0.0000000000e+00
5.5000000000e-01 1.0000000000e-02 0.0000000000e+00
5.6000000000e-01 1.0000000000e-02 0.0000000000e+00
5.7000000000e-01 1.0000000000e-02 0.0000000000e+00
5.8000000000e-01 1.0000000000e-02 0.0000000000e+00
5.9000000000e-01 1.0000000000e-02 0.0000000000e+00
6.0000000000e-01 1.0000000000e-02 0.0000000000e+00
6.1000000000e-01 1.0000000000e-02 0.0000000000e+00
6.2000000000e-01 1.0000000000e-02 0.0000000000e+00
6.3000000000e-01 1.0000000000e-02 0.0000000000e+00
6.4000000000e-01 1.0000000000e-02 0.0000000000e+00
6.5000000000e-01 1.0000000000e-02 0.0000000000e+00
6.6000000000e-01 1.0000000000e-02 0.0000000000e+00
6.7000000000e-01 1.0000000000e-02 0.0000000000e+00
6.8000000000e-01 1.0000000000e-02 0.0000000000e+00
6.9000000000e-01 1.0000000000e-02 0.0000000000e+00
7.0000000000e-01 1.0000000000e-02 0.0000000000e+00
7.1000000000e-01 1.0000000000e-02 0.0000000000e+00
7.2000000000e-01 1.0000000000e-02 0.0000000000e+00
7.3000000000e-01 1.0000000000e-02 0.0000000000e+00
7.4000000000e-01 1.0000000000e-02 0.0000000000e+00
7.5000000000e-01 1.0000000000e-02 0.0000000000e+00
7.6000000000e-01 1.0000000000e-02 0.0000000000e+00
7.7000000000e-01 1.0000000000e-02 0.0000000000e+00
7.8000000000e-01 1.0000000000e-02 0.0000000000e+00
7.9000000000e-01 1.0000000000e-02 0.0000000000e+00
8.0000000000e-01 1.0000000000e-02 0.0000000000e+00
8.1000000000e-01 1.0000000000e-02 0.0000000000e+00
8.2000000000e-01 1.0000000000e-02 0.0000000000e+00
8.3000000000e-01 1.0000000000e-02 0.0000000000e+00
8.4000000000e-01 1.0000000000e-02 0.0000000000e+00
8.5000000000e-01 1.0000000000e-02 0.0000000000e+00
8.6000000000e-01 1.0000000000e-02 0.0000000000e+00
8.7000000000e-01 1.0000000000e-02 0.0000000000e+00
8.8000000000e-01 1.0000000000e-02 0.0000000000e+00
8.9000000000e-01 1.0000000000e-02 0.0000000000e+00
9.0000000000e-01 1.0000000000e-02 0.0000000000e+00
9.1000000000e-01 1.0000000000e-02 0.0000000000e+00
9.2000000000e-01 1.0000000000e-02 0.0000000000e+00
[...]
CELL_DATA 10000

SCALARS massDensity float
LOOKUP_TABLE default
1.2011910350e+00
1.2011988981e+00
1.2012199154e+00
1.2012509066e+00
1.2012916016e+00
1.2013416301e+00
1.2014005262e+00
1.2014677386e+00
1.2015426398e+00
1.2016245388e+00
1.2017126911e+00
1.2018063125e+00
1.2019045895e+00
1.2020066927e+00
1.2021117881e+00
1.2022190483e+00
1.2023276636e+00
1.2024368518e+00
1.2025458669e+00
1.2026540072e+00
1.2027606219e+00
1.2028651164e+00
1.2029669565e+00
1.2030656715e+00
1.2031608554e+00
1.2032521678e+00
1.2033393330e+00
1.2034221387e+00
1.2035004329e+00
1.2035741213e+00
1.2036431627e+00
1.2037075653e+00
1.2037673812e+00
1.2038227018e+00
1.2038736524e+00
1.2039203872e+00
1.2039630841e+00
1.2040019399e+00
1.2040371651e+00
1.2040689806e+00
1.2040976128e+00
1.2041232903e+00
1.2041462408e+00
1.2041666884e+00
1.2041848511e+00
1.2042009389e+00
1.2042151523e+00
1.2042276814e+00
1.2042387044e+00
1.2042483879e+00
1.2042568859e+00
1.2042643402e+00
1.2042708805e+00
1.2042766247e+00
1.2042816791e+00
1.2042861393e+00
1.2042900906e+00
1.2042936087e+00
1.2042967605e+00
1.2042996045e+00
1.2043021916e+00
1.2043045660e+00
1.2043067652e+00
1.2043088212e+00
1.2043107608e+00
1.2043126059e+00
1.2043143742e+00
1.2043160796e+00
1.2043177324e+00
1.2043193398e+00
1.2043209062e+00
1.2043224334e+00
1.2043239211e+00
1.2043253670e+00
1.2043267671e+00
1.2043281163e+00
1.2043294081e+00
1.2043306356e+00
1.2043317911e+00
1.2043328669e+00
1.2043338554e+00
1.2043347494e+00
1.2043355423e+00
1.2043362285e+00
1.2043368033e+00
1.2043372632e+00
1.2043376061e+00
1.2043378310e+00
1.2043379383e+00
1.2043379294e+00
1.2043378069e+00
1.2043375734e+00
1.2043372318e+00
1.2043367835e+00
1.2043362272e+00
1.2043355570e+00
1.2043347592e+00
1.2043338107e+00
1.2043326805e+00
1.2043345082e+00
1.2011988981e+00
1.2012062389e+00
1.2012269535e+00
1.2012577451e+00
1.2012983047e+00
1.2013482363e+00
1.2014070583e+00
1.2014742088e+00
1.2015490544e+00
1.2016308998e+00
1.2017189988e+00
1.2018125657e+00
1.2019107873e+00
1.2020128343e+00
1.2021178734e+00
1.2022250781e+00
1.2023336400e+00
1.2024427775e+00
1.2025517459e+00
1.2026598441e+00
1.2027664222e+00
1.2028708858e+00
1.2029727013e+00
1.2030713977e+00
1.2031665693e+00
1.2032578748e+00
1.2033450385e+00
1.2034278468e+00
1.2035061472e+00
1.2035798440e+00
1.2036488953e+00
1.2037133076e+00
1.2037731320e+00
1.2038284583e+00
1.2038794107e+00
1.2039261418e+00
1.2039688283e+00
1.2040076656e+00
1.2040428634e+00
1.2040746412e+00
1.2041032245e+00
1.2041288411e+00
1.2041517181e+00
1.2041720787e+00
1.2041901407e+00
1.2042061135e+00
1.2042201977e+00
1.2042325827e+00
1.2042434471e+00
1.2042529573e+00
1.2042612674e+00
1.2042685195e+00
1.2042748433e+00
1.2042803568e+00
1.2042851669e+00
1.2042893693e+00
1.2042930498e+00
1.2042962845e+00
1.2042991405e+00
1.2043016771e+00
1.2043039458e+00
1.2043059912e+00
1.2043078521e+00
1.2043095612e+00
1.2043111465e+00
1.2043126312e+00
1.2043140346e+00
1.2043153723e+00
1.2043166564e+00
1.2043178965e+00
1.2043190992e+00
1.2043202689e+00
1.2043214082e+00
1.2043225174e+00
1.2043235958e+00
1.2043246410e+00
1.2043256497e+00
1.2043266177e+00
1.2043275401e+00
1.2043284118e+00
1.2043292271e+00
1.2043299806e+00
1.2043306671e+00
1.2043312815e+00
1.2043318196e+00
1.2043322774e+00
1.2043326518e+00
1.2043329407e+00
1.2043331425e+00
1.2043332564e+00
1.2043332823e+00
1.2043332205e+00
1.2043330715e+00
1.2043328354e+00
1.2043325115e+00
1.2043320978e+00
1.2043315908e+00
1.2043309867e+00
1.2043302858e+00
1.2043329365e+00
1.2012199154e+00
1.2012269535e+00
1.2012473905e+00
1.2012778854e+00
1.2013181181e+00
1.2013676851e+00
1.2014261005e+00
1.2014928011e+00
1.2015671538e+00
1.2016484657e+00
1.2017359935e+00
1.2018289558e+00
1.2019265432e+00
1.2020279317e+00
1.2021322927e+00
1.2022388051e+00
1.2023466650e+00
1.2024550964e+00
1.2025633588e+00
1.2026707561e+00
1.2027766421e+00
1.2028804269e+00
1.2029815799e+00
1.2030796336e+00
1.2031741845e+00
1.2032648943e+00
1.2033514884e+00
1.2034337554e+00
1.2035115432e+00
1.2035847575e+00
1.2036533560e+00
1.2037173457e+00
1.2037767770e+00
1.2038317394e+00
1.2038823561e+00
1.2039287789e+00
1.2039711830e+00
1.2040097627e+00
1.2040447261e+00
1.2040762913e+00
1.2041046821e+00
1.2041301250e+00
1.2041528453e+00
1.2041730648e+00
1.2041909997e+00
1.2042068581e+00
1.2042208391e+00
1.2042331310e+00
1.2042439111e+00
1.2042533447e+00
1.2042615849e+00
1.2042687729e+00
1.2042750376e+00
1.2042804963e+00
1.2042852551e+00
1.2042894093e+00
1.2042930441e+00
1.2042962352e+00
1.2042990495e+00
1.2043015459e+00
1.2043037757e+00
1.2043057836e+00
1.2043076081e+00
1.2043092822e+00
1.2043108338e+00
1.2043122863e+00
1.2043136594e+00
1.2043149687e+00
1.2043162269e+00
1.2043174439e+00
1.2043186268e+00
1.2043197805e+00
1.2043209079e+00
1.2043220101e+00
1.2043230867e+00
1.2043241359e+00
1.2043251547e+00
1.2043261393e+00
1.2043270851e+00
1.2043279869e+00
1.2043288393e+00
1.2043296368e+00
1.2043303736e+00
1.2043310445e+00
1.2043316444e+00
1.2043321688e+00
1.2043326137e+00
1.2043329759e+00
1.2043332529e+00
1.2043334427e+00
1.2043335444e+00
1.2043335574e+00
1.2043334816e+00
1.2043333173e+00
1.2043330651e+00
1.2043327259e+00
1.2043323022e+00
1.2043317994e+00
1.2043312317e+00
1.2043343803e+00
1.2012509066e+00
1.2012577451e+00
1.2012778854e+00
1.2013080072e+00
1.2013477918e+00
1.2013968356e+00
1.2014546536e+00
1.2015206846e+00
1.2015942997e+00
1.2016748100e+00
1.2017614786e+00
1.2018535299e+00
1.2019501624e+00
1.2020505588e+00
1.2021538988e+00
1.2022593683e+00
1.2023661718e+00
1.2024735401e+00
1.2025807404e+00
1.2026870829e+00
1.2027919283e+00
1.2028946918e+00
1.2029948488e+00
1.2030919359e+00
1.2031855541e+00
1.2032753680e+00
1.2033611065e+00
1.2034425596e+00
1.2035195775e+00
1.2035920662e+00
1.2036599845e+00
1.2037233389e+00
1.2037821798e+00
1.2038365955e+00
1.2038867081e+00
1.2039326678e+00
1.2039746483e+00
1.2040128417e+00
1.2040474541e+00
1.2040787012e+00
1.2041068050e+00
1.2041319891e+00
1.2041544769e+00
1.2041744879e+00
1.2041922360e+00
1.2042079273e+00
1.2042217589e+00
1.2042339172e+00
1.2042445777e+00
1.2042539040e+00
1.2042620479e+00
1.2042691489e+00
1.2042753349e+00
1.2042807221e+00
1.2042854154e+00
1.2042895094e+00
1.2042930884e+00
1.2042962275e+00
1.2042989931e+00
1.2043014435e+00
1.2043036298e+00
1.2043055964e+00
1.2043073816e+00
1.2043090182e+00
1.2043105342e+00
1.2043119532e+00
1.2043132948e+00
1.2043145750e+00
1.2043158068e+00
1.2043170003e+00
1.2043181631e+00
1.2043193006e+00
1.2043204160e+00
1.2043215111e+00
1.2043225858e+00
1.2043236387e+00
1.2043246672e+00
1.2043256680e+00
1.2043266366e+00
1.2043275679e+00
1.2043284567e+00
1.2043292971e+00
1.2043300833e+00
1.2043308095e+00
1.2043314701e+00
1.2043320599e+00
1.2043325742e+00
1.2043330088e+00
1.2043333601e+00
1.2043336255e+00
1.2043338029e+00
1.2043338910e+00
1.2043338894e+00
1.2043337984e+00
1.2043336193e+00
1.2043333550e+00
1.2043330106e+00
1.2043325954e+00
1.2043321260e+00
1.2043356894e+00
1.2012916016e+00
1.2012983047e+00
1.2013181181e+00
1.2013477918e+00
1.2013870130e+00
1.2014353832e+00
1.2014924215e+00
1.2015575727e+00
1.2016302137e+00
1.2017096639e+00
1.2017951941e+00
1.2018860385e+00
1.2019814046e+00
1.2020804860e+00
1.2021824717e+00
1.2022865591e+00
1.2023919617e+00
1.2024979211e+00
1.2026037134e+00
1.2027086584e+00
1.2028121245e+00
1.2029135353e+00
1.2030123724e+00
1.2031081793e+00
1.2032005618e+00
1.2032891895e+00
1.2033737943e+00
1.2034541698e+00
1.2035301677e+00
1.2036016958e+00
1.2036687131e+00
1.2037312266e+00
1.2037892855e+00
1.2038429775e+00
1.2038924227e+00
1.2039377697e+00
1.2039791895e+00
1.2040168720e+00
1.2040510203e+00
1.2040818475e+00
1.2041095722e+00
1.2041344155e+00
1.2041565973e+00
1.2041763346e+00
1.2041938382e+00
1.2042093115e+00
1.2042229488e+00
1.2042349343e+00
1.2042454410e+00
1.2042546304e+00
1.2042626522e+00
1.2042696443e+00
1.2042757327e+00
1.2042810321e+00
1.2042856463e+00
1.2042896685e+00
1.2042931819e+00
1.2042962609e+00
1.2042989710e+00
1.2043013699e+00
1.2043035082e+00
1.2043054297e+00
1.2043071726e+00
1.2043087694e+00
1.2043102481e+00
1.2043116321e+00
1.2043129412e+00
1.2043141915e+00
1.2043153963e+00
1.2043165660e+00
1.2043177085e+00
1.2043188296e+00
1.2043199330e+00
1.2043210207e+00
1.2043220933e+00
1.2043231497e+00
1.2043241877e+00
1.2043252043e+00
1.2043261951e+00
1.2043271554e+00
1.2043280797e+00
1.2043289622e+00
1.2043297967e+00
1.2043305772e+00
1.2043312974e+00
1.2043319515e+00
1.2043325340e+00
1.2043330399e+00
1.2043334647e+00
1.2043338048e+00
1.2043340572e+00
1.2043342201e+00
1.2043342923e+00
1.2043342741e+00
1.2043341669e+00
1.2043339743e+00
1.2043337021e+00
1.2043333601e+00
1.2043329635e+00
1.2043368814e+00
1.2013416301e+00
1.2013482363e+00
1.2013676851e+00
1.2013968356e+00
1.2014353832e+00
1.2014829360e+00
1.2015390215e+00
1.2016030919e+00
1.2016745339e+00
1.2017526762e+00
1.2018368014e+00
1.2019261545e+00
1.2020199565e+00
1.2021174123e+00
1.2022177252e+00
1.2023201039e+00
1.2024237760e+00
1.2025279942e+00
1.2026320473e+00
1.2027352653e+00
1.2028370278e+00
1.2029367673e+00
1.2030339746e+00
1.2031282000e+00
1.2032190566e+00
1.2033062190e+00
1.2033894243e+00
1.2034684688e+00
1.2035432075e+00
1.2036135493e+00
1.2036794544e+00
1.2037409293e+00
1.2037980231e+00
1.2038508214e+00
1.2038994430e+00
1.2039440335e+00
1.2039847617e+00
1.2040218137e+00
1.2040553899e+00
1.2040856993e+00
1.2041129572e+00
1.2041373807e+00
1.2041591865e+00
1.2041785875e+00
1.2041957913e+00
1.2042109978e+00
1.2042243981e+00
1.2042361732e+00
1.2042464935e+00
1.2042555176e+00
1.2042633929e+00
1.2042702548e+00
1.2042762275e+00
1.2042814238e+00
1.2042859457e+00
1.2042898849e+00
1.2042933235e+00
1.2042963346e+00
1.2042989827e+00
1.2043013248e+00
1.2043034106e+00
1.2043052836e+00
1.2043069813e+00
1.2043085361e+00
1.2043099756e+00
1.2043113233e+00
1.2043125989e+00
1.2043138187e+00
1.2043149960e+00
1.2043161415e+00
1.2043172635e+00
1.2043183680e+00
1.2043194591e+00
1.2043205395e+00
1.2043216097e+00
1.2043226694e+00
1.2043237167e+00
1.2043247486e+00
1.2043257612e+00
1.2043267498e+00
1.2043277090e+00
1.2043286327e+00
1.2043295147e+00
1.2043303483e+00
1.2043311270e+00
1.2043318443e+00
1.2043324938e+00
1.2043330698e+00
1.2043335669e+00
1.2043339806e+00
1.2043343070e+00
1.2043345434e+00
1.2043346882e+00
1.2043347410e+00
1.2043347030e+00
1.2043345775e+00
1.2043343700e+00
1.2043340893e+00
1.2043337478e+00
1.2043379769e+00
1.2014005262e+00
1.2014070583e+00
1.2014261005e+00
1.2014546536e+00
1.2014924215e+00
1.2015390215e+00
1.2015939900e+00
1.2016567903e+00
1.2017268197e+00
1.2018034204e+00
1.2018858873e+00
1.2019734809e+00
1.2020654354e+00
1.2021609725e+00
1.2022593091e+00
1.2023596708e+00
1.2024612988e+00
1.2025634614e+00
1.2026654604e+00
1.2027666399e+00
1.2028663907e+00
1.2029641575e+00
1.2030594403e+00
1.2031517993e+00
1.2032408545e+00
1.2033262878e+00
1.2034078408e+00
1.2034853149e+00
1.2035585672e+00
1.2036275093e+00
1.2036921017e+00
1.2037523514e+00
1.2038083059e+00
1.2038600501e+00
1.2039076998e+00
1.2039513982e+00
1.2039913102e+00
1.2040276190e+00
1.2040605203e+00
1.2040902196e+00
1.2041169273e+00
1.2041408568e+00
1.2041622199e+00
1.2041812257e+00
1.2041980773e+00
1.2042129709e+00
1.2042260936e+00
1.2042376230e+00
1.2042477259e+00
1.2042565579e+00
1.2042642634e+00
1.2042709753e+00
1.2042768151e+00
1.2042818937e+00
1.2042863108e+00
1.2042901566e+00
1.2042935116e+00
1.2042964474e+00
1.2042990274e+00
1.2043013076e+00
1.2043033369e+00
1.2043051579e+00
1.2043068078e+00
1.2043083185e+00
1.2043097172e+00
1.2043110274e+00
1.2043122685e+00
1.2043134570e+00
1.2043146063e+00
1.2043157273e+00
1.2043168284e+00
1.2043179162e+00
1.2043189950e+00
1.2043200678e+00
1.2043211357e+00
1.2043221984e+00
1.2043232547e+00
1.2043243016e+00
1.2043253356e+00
1.2043263519e+00
1.2043273452e+00
1.2043283094e+00
1.2043292379e+00
1.2043301237e+00
1.2043309598e+00
1.2043317390e+00
1.2043324543e+00
1.2043330991e+00
1.2043336671e+00
1.2043341530e+00
1.2043345519e+00
1.2043348603e+00
1.2043350757e+00
1.2043351970e+00
1.2043352248e+00
1.2043351615e+00
1.2043350118e+00
1.2043347829e+00
1.2043344846e+00
1.2043389942e+00
1.2014677386e+00
1.2014742088e+00
1.2014928011e+00
1.2015206846e+00
1.2015575727e+00
1.2016030919e+00
1.2016567903e+00
1.2017181426e+00
1.2017865607e+00
1.2018614003e+00
1.2019419730e+00
1.2020275546e+00
1.2021173978e+00
1.2022107403e+00
1.2023068180e+00
1.2024048726e+00
1.2025041639e+00
1.2026039756e+00
1.2027036265e+00
1.2028024748e+00
1.2028999263e+00
1.2029954375e+00
1.2030885209e+00
1.2031787459e+00
1.2032657425e+00
1.2033491990e+00
1.2034288640e+00
1.2035045429e+00
1.2035760969e+00
1.2036434391e+00
1.2037065317e+00
1.2037653810e+00
1.2038200342e+00
1.2038705736e+00
1.2039171131e+00
1.2039597920e+00
1.2039987721e+00
1.2040342318e+00
1.2040663627e+00
1.2040953652e+00
1.2041214453e+00
1.2041448109e+00
1.2041656694e+00
1.2041842246e+00
1.2042006753e+00
1.2042152128e+00
1.2042280202e+00
1.2042392707e+00
1.2042491274e+00
1.2042577423e+00
1.2042652564e+00
1.2042717996e+00
1.2042774907e+00
1.2042824378e+00
1.2042867386e+00
1.2042904813e+00
1.2042937444e+00
1.2042965980e+00
1.2042991043e+00
1.2043013178e+00
1.2043032866e+00
1.2043050526e+00
1.2043066522e+00
1.2043081167e+00
1.2043094731e+00
1.2043107445e+00
1.2043119503e+00
1.2043131068e+00
1.2043142277e+00
1.2043153238e+00
1.2043164039e+00
1.2043174748e+00
1.2043185412e+00
1.2043196063e+00
1.2043206716e+00
1.2043217374e+00
1.2043228023e+00
1.2043238639e+00
1.2043249188e+00
1.2043259624e+00
1.2043269892e+00
1.2043279931e+00
1.2043289672e+00
1.2043299042e+00
1.2043307965e+00
1.2043316364e+00
1.2043324162e+00
1.2043331283e+00
1.2043337658e+00
1.2043343222e+00
1.2043347918e+00
1.2043351702e+00
1.2043354539e+00
1.2043356409e+00
1.2043357309e+00
1.2043357254e+00
1.2043356278e+00
1.2043354437e+00
1.2043351804e+00
1.2043399478e+00
1.2015426398e+00
1.2015490544e+00
1.2015671538e+00
1.2015942997e+00
1.2016302137e+00
1.2016745339e+00
1.2017268197e+00
1.2017865607e+00
1.2018531829e+00
1.2019260597e+00
1.2020045193e+00
1.2020878572e+00
1.2021753440e+00
1.2022662384e+00
1.2023597947e+00
1.2024552756e+00
1.2025519587e+00
1.2026491479e+00
1.2027461782e+00
1.2028424260e+00
1.2029373116e+00
1.2030303068e+00
1.2031209359e+00
1.2032087810e+00
1.2032934806e+00
1.2033747326e+00
1.2034522914e+00
1.2035259683e+00
1.2035956278e+00
1.2036611860e+00
1.2037226056e+00
1.2037798936e+00
1.2038330953e+00
1.2038822916e+00
1.2039275929e+00
1.2039691355e+00
1.2040070764e+00
1.2040415897e+00
1.2040728618e+00
1.2041010880e+00
1.2041264687e+00
1.2041492064e+00
1.2041695029e+00
1.2041875569e+00
1.2042035616e+00
1.2042177035e+00
1.2042301607e+00
1.2042411019e+00
1.2042506858e+00
1.2042590606e+00
1.2042663634e+00
1.2042727208e+00
1.2042782484e+00
1.2042830516e+00
1.2042872255e+00
1.2042908560e+00
1.2042940196e+00
1.2042967848e+00
1.2042992119e+00
1.2043013545e+00
1.2043032594e+00
1.2043049675e+00
1.2043065144e+00
1.2043079309e+00
1.2043092435e+00
1.2043104750e+00
1.2043116446e+00
1.2043127687e+00
1.2043138606e+00
1.2043149316e+00
1.2043159906e+00
1.2043170444e+00
1.2043180983e+00
1.2043191556e+00
1.2043202183e+00
1.2043212868e+00
1.2043223602e+00
1.2043234363e+00
1.2043245117e+00
1.2043255820e+00
1.2043266417e+00
1.2043276845e+00
1.2043287033e+00
1.2043296905e+00
1.2043306379e+00
1.2043315373e+00
1.2043323801e+00
1.2043331581e+00
1.2043338634e+00
1.2043344886e+00
1.2043350270e+00
1.2043354732e+00
1.2043358227e+00
1.2043360726e+00
1.2043362214e+00
1.2043362696e+00
1.2043362193e+00
1.2043360746e+00
1.2043358409e+00
1.2043408489e+00
1.2016245388e+00
1.2016308998e+00
1.2016484657e+00
1.2016748100e+00
1.2017096639e+00
1.2017526762e+00
1.2018034204e+00
1.2018614003e+00
1.2019260597e+00
1.2019967892e+00
1.2020729376e+00
1.2021538197e+00
1.2022387286e+00
1.2023269430e+00
1.2024177406e+00
1.2025104040e+00
1.2026042333e+00
1.2026985515e+00
1.2027927147e+00
1.2028861160e+00
1.2029781943e+00
1.2030684357e+00
1.2031563800e+00
1.2032416205e+00
1.2033238076e+00
1.2034026472e+00
1.2034779022e+00
1.2035493886e+00
1.2036169761e+00
1.2036805824e+00
1.2037401724e+00
1.2037957522e+00
1.2038473667e+00
1.2038950938e+00
1.2039390412e+00
1.2039793409e+00
1.2040161457e+00
1.2040496242e+00
1.2040799576e+00
1.2041073351e+00
1.2041319515e+00
1.2041540032e+00
1.2041736860e+00
1.2041911926e+00
1.2042067106e+00
1.2042204209e+00
1.2042324964e+00
1.2042431007e+00
1.2042523879e+00
1.2042605016e+00
1.2042675752e+00
1.2042737312e+00
1.2042790821e+00
1.2042837300e+00
1.2042877674e+00
1.2042912775e+00
1.2042943349e+00
1.2042970058e+00
1.2042993492e+00
1.2043014169e+00
1.2043032546e+00
1.2043049021e+00
1.2043063942e+00
1.2043077611e+00
1.2043090287e+00
1.2043102193e+00
1.2043113520e+00
1.2043124430e+00
1.2043135057e+00
1.2043145513e+00
1.2043155889e+00
1.2043166256e+00
1.2043176669e+00
1.2043187164e+00
1.2043197763e+00
1.2043208475e+00
1.2043219291e+00
1.2043230194e+00
1.2043241149e+00
1.2043252114e+00
1.2043263034e+00
1.2043273844e+00
1.2043284471e+00
1.2043294834e+00
1.2043304848e+00
1.2043314424e+00
1.2043323468e+00
1.2043331892e+00
1.2043339605e+00
1.2043346526e+00
1.2043352578e+00
1.2043357695e+00
1.2043361824e+00
1.2043364923e+00
1.2043366968e+00
1.2043367951e+00
1.2043367882e+00
1.2043366788e+00
1.2043364711e+00
1.2043417061e+00
1.2017126911e+00
1.2017189988e+00
1.2017359935e+00
1.2017614786e+00
1.2017951941e+00
1.2018368014e+00
1.2018858873e+00
1.2019419730e+00
1.2020045193e+00
1.2020729376e+00
1.2021465967e+00
1.2022248348e+00
1.2023069663e+00
1.2023922950e+00
1.2024801203e+00
1.2025697497e+00
1.2026605045e+00
1.2027517312e+00
1.2028428055e+00
1.2029331420e+00
1.2030221962e+00
1.2031094728e+00
1.2031945253e+00
1.2032769617e+00
1.2033564428e+00
1.2034326855e+00
1.2035054594e+00
1.2035745880e+00
1.2036399443e+00
1.2037014498e+00
1.2037590698e+00
1.2038128112e+00
1.2038627169e+00
1.2039088629e+00
1.2039513529e+00
1.2039903152e+00
1.2040258971e+00
1.2040582623e+00
1.2040875854e+00
1.2041140502e+00
1.2041378444e+00
1.2041591583e+00
1.2041781812e+00
1.2041950995e+00
1.2042100945e+00
1.2042233414e+00
1.2042350070e+00
1.2042452500e+00
1.2042542191e+00
1.2042620533e+00
1.2042688815e+00
1.2042748225e+00
1.2042799848e+00
1.2042844675e+00
1.2042883597e+00
1.2042917424e+00
1.2042946873e+00
1.2042972590e+00
1.2042995143e+00
1.2043015037e+00
1.2043032713e+00
1.2043048560e+00
1.2043062915e+00
1.2043076073e+00
1.2043088287e+00
1.2043099776e+00
1.2043110728e+00
1.2043121302e+00
1.2043131632e+00
1.2043141833e+00
1.2043151994e+00
1.2043162189e+00
1.2043172475e+00
1.2043182892e+00
1.2043193463e+00
1.2043204200e+00
1.2043215098e+00
1.2043226139e+00
1.2043237293e+00
1.2043248515e+00
1.2043259752e+00
1.2043270937e+00
1.2043281994e+00
1.2043292839e+00
1.2043303381e+00
1.2043313525e+00
1.2043323171e+00
1.2043332222e+00
1.2043340579e+00
1.2043348150e+00
1.2043354848e+00
1.2043360598e+00
1.2043365335e+00
1.2043369007e+00
1.2043371579e+00
1.2043373033e+00
1.2043373366e+00
1.2043372595e+00
1.2043370749e+00
1.2043425256e+00
1.2018063125e+00
1.2018125657e+00
1.2018289558e+00
1.2018535299e+00
1.2018860385e+00
1.2019261545e+00
1.2019734809e+00
1.2020275546e+00
1.2020878572e+00
1.2021538197e+00
1.2022248348e+00
1.2023002627e+00
1.2023794439e+00
1.2024617053e+00
1.2025463729e+00
1.2026327775e+00
1.2027202661e+00
1.2028082072e+00
1.2028960002e+00
1.2029830794e+00
1.2030689215e+00
1.2031530475e+00
1.2032350284e+00
1.2033144853e+00
1.2033910925e+00
1.2034645761e+00
1.2035347153e+00
1.2036013390e+00
1.2036643260e+00
1.2037235999e+00
1.2037791282e+00
1.2038309170e+00
1.2038790083e+00
1.2039234751e+00
1.2039644179e+00
1.2040019599e+00
1.2040362438e+00
1.2040674268e+00
1.2040956779e+00
1.2041211736e+00
1.2041440954e+00
1.2041646265e+00
1.2041829494e+00
1.2041992436e+00
1.2042136843e+00
1.2042264398e+00
1.2042376714e+00
1.2042475317e+00
1.2042561642e+00
1.2042637028e+00
1.2042702719e+00
1.2042759858e+00
1.2042809494e+00
1.2042852580e+00
1.2042889978e+00
1.2042922466e+00
1.2042950740e+00
1.2042975420e+00
1.2042997056e+00
1.2043016136e+00
1.2043033088e+00
1.2043048286e+00
1.2043062059e+00
1.2043074693e+00
1.2043086435e+00
1.2043097500e+00
1.2043108070e+00
1.2043118305e+00
1.2043128338e+00
1.2043138280e+00
1.2043148226e+00
1.2043158249e+00