# vtk DataFile Version 2.0
Blank
ASCII
DATASET STRUCTURED_GRID
DIMENSIONS 101 101 2
POINTS 20402 float
0.0000000000e+00 0.0000000000e+00 0.0000000000e+00
1.0000000000e-02 0.0000000000e+00 0.0000000000e+00
2.0000000000e-02 0.0000000000e+00 0.0000000000e+00
3.0000000000e-02 0.0000000000e+00 0.0000000000e+00
4.0000000000e-02 0.0000000000e+00 0.0000000000e+00
5.0000000000e-02 0.0000000000e+00 0.0000000000e+00
6.0000000000e-02 0.0000000000e+00 0.0000000000e+00
7.0000000000e-02 0.0000000000e+00 0.0000000000e+00
8.0000000000e-02 0.0000000000e+00 0.0000000000e+00
9.0000000000e-02 0.0000000000e+00 0.0000000000e+00
1.0000000000e-01 0.0000000000e+00 0.0000000000e+00
1.1000000000e-01 0.0000000000e+00 0.0000000000e+00
1.2000000000e-01 0.0000000000e+00 0.0000000000e+00
1.3000000000e-01 0.0000000000e+00 0.0000000000e+00
1.4000000000e-01 0.0000000000e+00 0.0000000000e+00
1.5000000000e-01 0.0000000000e+00 0.0000000000e+00
1.6000000000e-01 0.0000000000e+00 0.0000000000e+00
1.7000000000e-01 0.0000000000e+00 0.0000000000e+00
1.8000000000e-01 0.0000000000e+00 0.0000000000e+00
1.9000000000e-01 0.0000000000e+00 0.0000000000e+00
2.0000000000e-01 0.0000000000e+00 0.0000000000e+00
2.1000000000e-01 0.0000000000e+00 0.0000000000e+00
2.2000000000e-01 0.0000000000e+00 0.0000000000e+00
2.3000000000e-01 0.0000000000e+00 0.0000000000e+00
2.4000000000e-01 0.0000000000e+00 0.0000000000e+00
2.5000000000e-01 0.0000000000e+00 0.0000000000e+00
2.6000000000e-01 0.0000000000e+00 0.0000000000e+00
2.7000000000e-01 0.0000000000e+00 0.0000000000e+00
2.8000000000e-01 0.0000000000e+00 0.0000000000e+00
2.9000000000e-01 0.0000000000e+00 0.0000000000e+00
3.0000000000e-01 0.0000000000e+00 0.0000000000e+00
3.1000000000e-01 0.0000000000e+00 0.0000000000e+00
3.2000000000e-01 0.0000000000e+00 0.0000000000e+00
3.3000000000e-01 0.0000000000e+00 0.0000000000e+00
3.4000000000e-01 0.0000000000e+00 0.0000000000e+00
3.5000000000e-01 0.0000000000e+00 0.0000000000e+00
3.6000000000e-01 0.0000000000e+00 0.0000000000e+00
3.7000000000e-01 0.0000000000e+00 0.0000000000e+00
3.8000000000e-01 0.0000000000e+00 0.0000000000e+00
3.9000000000e-01 0.0000000000e+00 0.0000000000e+00
4.0000000000e-01 0.0000000000e+00 0.0000000000e+00
4.1000000000e-01 0.0000000000e+00 0.0000000000e+00
4.2000000000e-01 0.0000000000e+00 0.0000000000e+00
4.3000000000e-01 0.0000000000e+00 0.0000000000e+00
4.4000000000e-01 0.0000000000e+00 0.0000000000e+00
4.5000000000e-01 0.0000000000e+00 0.0000000000e+00
4.6000000000e-01 0.0000000000e+00 0.0000000000e+00
4.7000000000e-01 0.0000000000e+00 0.0000000000e+00
4.8000000000e-01 0.0000000000e+00 0.0000000000e+00
4.9000000000e-01 0.0000000000e+00 0.0000000000e+00
5.0000000000e-01 0.0000000000e+00 0.0000000000e+00
5.1000000000e-01 0.0000000000e+00 0.0000000000e+00
5.2000000000e-01 0.0000000000e+00 0.0000000000e+00
5.3000000000e-01 0.0000000000e+00 0.0000000000e+00
5.4000000000e-01 0.0000000000e+00 0.0000000000e+00
5.5000000000e-01 0.0000000000e+00 0.0000000000e+00
5.6000000000e-01 0.0000000000e+00 0.0000000000e+00
5.7000000000e-01 0.0000000000e+00 0.0000000000e+00
5.8000000000e-01 0.0000000000e+00 0.0000000000e+00
5.9000000000e-01 0.0000000000e+00 0.0000000000e+00
6.0000000000e-01 0.0000000000e+00 0.0000000000e+00
6.1000000000e-01 0.0000000000e+00 0.0000000000e+00
6.2000000000e-01 0.0000000000e+00 0.0000000000e+00
6.3000000000e-01 0.0000000000e+00 0.0000000000e+00
6.4000000000e-01 0.0000000000e+00 0.0000000000e+00
6.5000000000e-01 0.0000000000e+00 0.0000000000e+00
6.6000000000e-01 0.0000000000e+00 0.0000000000e+00
6.7000000000e-01 0.0000000000e+00 0.0000000000e+00
6.8000000000e-01 0.0000000000e+00 0.0000000000e+00
6.9000000000e-01 0.0000000000e+00 0.0000000000e+00
7.0000000000e-01 0.0000000000e+00 0.0000000000e+00
7.1000000000e-01 0.0000000000e+00 0.0000000000e+00
7.2000000000e-01 0.0000000000e+00 0.0000000000e+00
7.3000000000e-01 0.0000000000e+00 0.0000000000e+00
7.4000000000e-01 0.0000000000e+00 0.0000000000e+00
7.5000000000e-01 0.0000000000e+00 0.0000000000e+00
7.6000000000e-01 0.0000000000e+00 0.0000000000e+00
7.7000000000e-01 0.0000000000e+00 0.0000000000e+00
7.8000000000e-01 0.0000000000e+00 0.0000000000e+00
7.9000000000e-01 0.0000000000e+00 0.0000000000e+00
8.0000000000e-01 0.0000000000e+00 0.0000000000e+00
8.1000000000e-01 0.0000000000e+00 0.0000000000e+00
8.2000000000e-01 0.0000000000e+00 0.0000000000e+00
8.3000000000e-01 0.0000000000e+00 0.0000000000e+00
8.4000000000e-01 0.0000000000e+00 0.0000000000e+00
8.5000000000e-01 0.0000000000e+00 0.0000000000e+00
8.6000000000e-01 0.0000000000e+00 0.0000000000e+00
8.7000000000e-01 0.0000000000e+00 0.0000000000e+00
8.8000000000e-01 0.0000000000e+00 0.0000000000e+00
8.9000000000e-01 0.0000000000e+00 0.0000000000e+00
9.0000000000e-01 0.0000000000e+00 0.0000000000e+00
9.1000000000e-01 0.0000000000e+00 0.0000000000e+00
9.2000000000e-01 0.0000000000e+00 0.0000000000e+00
9.3000000000e-01 0.0000000000e+00 0.0000000000e+00
9.4000000000e-01 0.0000000000e+00 0.0000000000e+00
9.5000000000e-01 0.0000000000e+00 0.0000000000e+00
9.6000000000e-01 0.0000000000e+00 0.0000000000e+00
9.7000000000e-01 0.0000000000e+00 0.0000000000e+00
9.8000000000e-01 0.0000000000e+00 0.0000000000e+00
9.9000000000e-01 0.0000000000e+00 0.0000000000e+00
1.0000000000e+00 0.0000000000e+00 0.0000000000e+00
0.0000000000e+00 1.0000000000e-02 0.0000000000e+00
1.0000000000e-02 1.0000000000e-02 0.0000000000e+00
2.0000000000e-02 1.0000000000e-02 0.0000000000e+00
3.0000000000e-02 1.0000000000e-02 0.0000000000e+00
4.0000000000e-02 1.0000000000e-02 0.0000000000e+00
5.0000000000e-02 1.0000000000e-02 0.0000000000e+00
6.0000000000e-02 1.0000000000e-02 0.0000000000e+00
7.0000000000e-02 1.0000000000e-02 0.0000000000e+00
8.0000000000e-02 1.0000000000e-02 0.0000000000e+00
9.0000000000e-02 1.0000000000e-02 0.0000000000e+00
1.0000000000e-01 1.0000000000e-02 0.0000000000e+00
1.1000000000e-01 1.0000000000e-02 0.0000000000e+00
1.2000000000e-01 1.0000000000e-02 0.0000000000e+00
1.3000000000e-01 1.0000000000e-02 0.0000000000e+00
1.4000000000e-01 1.0000000000e-02 0.0000000000e+00
1.5000000000e-01 1.0000000000e-02 0.0000000000e+00
1.6000000000e-01 1.0000000000e-02 0.0000000000e+00
1.7000000000e-01 1.0000000000e-02 0.0000000000e+00
1.8000000000e-01 1.0000000000e-02 0.0000000000e+00
1.9000000000e-01 1.0000000000e-02 0.0000000000e+00
2.0000000000e-01 1.0000000000e-02 0.0000000000e+00
2.1000000000e-01 1.0000000000e-02 0.0000000000e+00
2.2000000000e-01 1.0000000000e-02 0.0000000000e+00
2.3000000000e-01 1.0000000000e-02 0.0000000000e+00
2.4000000000e-01 1.0000000000e-02 0.0000000000e+00
2.5000000000e-01 1.0000000000e-02 0.0000000000e+00
2.6000000000e-01 1.0000000000e-02 0.0000000000e+00
2.7000000000e-01 1.0000000000e-02 0.0000000000e+00
2.8000000000e-01 1.0000000000e-02 0.0000000000e+00
2.9000000000e-01 1.0000000000e-02 0.0000000000e+00
3.0000000000e-01 1.0000000000e-02 0.0000000000e+00
3.1000000000e-01 1.0000000000e-02 0.0000000000e+00
3.2000000000e-01 1.0000000000e-02 0.0000000000e+00
3.3000000000e-01 1.0000000000e-02 0.0000000000e+00
3.4000000000e-01 1.0000000000e-02 0.0000000000e+00
3.5000000000e-01 1.0000000000e-02 0.0000000000e+00
3.6000000000e-01 1.0000000000e-02 0.0000000000e+00
3.7000000000e-01 1.0000000000e-02 0.0000000000e+00
3.8000000000e-01 1.0000000000e-02 0.0000000000e+00
3.9000000000e-01 1.0000000000e-02 0.0000000000e+00
4.0000000000e-01 1.0000000000e-02 0.0000000000e+00
4.1000000000e-01 1.0000000000e-02 0.0000000000e+00
4.2000000000e-01 1.0000000000e-02 0.0000000000e+00
4.3000000000e-01 1.0000000000e-02 0.0000000000e+00
4.4000000000e-01 1.0000000000e-02 0.0000000000e+00
4.5000000000e-01 1.0000000000e-02 0.0000000000e+00
4.6000000000e-01 1.0000000000e-02 0.0000000000e+00
4.7000000000e-01 1.0000000000e-02 0.0000000000e+00
4.8000000000e-01 1.0000000000e-02 0.0000000000e+00
4.9000000000e-01 1.0000000000e-02 0.0000000000e+00
5.0000000000e-01 1.0000000000e-02 0.0000000000e+00
5.1000000000e-01 1.0000000000e-02 0.0000000000e+00
5.2000000000e-01 1.0000000000e-02 0.0000000000e+00
5.3000000000e-01 1.0000000000e-02 0.0000000000e+00
5.4000000000e-01 1.0000000000e-02 0.0000000000e+00
5.5000000000e-01 1.0000000000e-02 0.0000000000e+00
5.6000000000e-01 1.0000000000e-02 0.0000000000e+00
5.7000000000e-01 1.0000000000e-02 0.0000000000e+00
5.8000000000e-01 1.0000000000e-02 0.0000000000e+00
5.9000000000e-01 1.0000000000e-02 0.0000000000e+00
6.0000000000e-01 1.0000000000e-02 0.0000000000e+00
6.1000000000e-01 1.0000000000e-02 0.0000000000e+00
6.2000000000e-01 1.0000000000e-02 0.0000000000e+00
6.3000000000e-01 1.0000000000e-02 0.0000000000e+00
6.4000000000e-01 1.0000000000e-02 0.0000000000e+00
6.5000000000e-01 1.0000000000e-02 0.0000000000e+00
6.6000000000e-01 1.0000000000e-02 0.0000000000e+00
6.7000000000e-01 1.0000000000e-02 0.0000000000e+00
6.8000000000e-01 1.0000000000e-02 0.0000000000e+00
6.9000000000e-01 1.0000000000e-02 0.0000000000e+00
7.0000000000e-01 1.0000000000e-02 0.0000000000e+00
7.1000000000e-01 1.0000000000e-02 0.0000000000e+00
7.2000000000e-01 1.0000000000e-02 0.0000000000e+00
7.3000000000e-01 1.0000000000e-02 0.0000000000e+00
7.4000000000e-01 1.0000000000e-02 0.0000000000e+00
7.5000000000e-01 1.0000000000e-02 0.0000000000e+00
7.6000000000e-01 1.0000000000e-02 0.0000000000e+00
7.7000000000e-01 1.0000000000e-02 0.0000000000e+00
7.8000000000e-01 1.0000000000e-02 0.0000000000e+00
7.9000000000e-01 1.0000000000e-02 0.0000000000e+00
8.0000000000e-01 1.0000000000e-02 0.0000000000e+00
8.1000000000e-01 1.0000000000e-02 0.0000000000e+00
8.2000000000e-01 1.0000000000e-02 0.0000000000e+00
8.3000000000e-01 1.0000000000e-02 0.0000000000e+00
8.4000000000e-01 1.0000000000e-02 0.0000000000e+00
8.5000000000e-01 1.0000000000e-02 0.0000000000e+00
8.6000000000e-01 1.0000000000e-02 0.0000000000e+00
8.7000000000e-01 1.0000000000e-02 0.0000000000e+00
8.8000000000e-01 1.0000000000e-02 0.0000000000e+00
8.9000000000e-01 1.0000000000e-02 0.0000000000e+00
9.0000000000e-01 1.0000000000e-02 0.0000000000e+00
9.1000000000e-01 1.0000000000e-02 0.0000000000e+00
9.2000000000e-01 1.0000000000e-02 0.0000000000e+00
[...]
CELL_DATA 10000

SCALARS massDensity float
LOOKUP_TABLE default
1.2010416175e+00
1.2010517730e+00
1.2010756142e+00
1.2011104237e+00
1.2011558642e+00
1.2012114913e+00
1.2012767581e+00
1.2013510237e+00
1.2014335653e+00
1.2015235900e+00
1.2016202493e+00
1.2017226519e+00
1.2018298787e+00
1.2019409959e+00
1.2020550696e+00
1.2021711775e+00
1.2022884223e+00
1.2024059414e+00
1.2025229183e+00
1.2026385897e+00
1.2027522536e+00
1.2028632745e+00
1.2029710877e+00
1.2030752016e+00
1.2031752000e+00
1.2032707403e+00
1.2033615541e+00
1.2034474430e+00
1.2035282767e+00
1.2036039874e+00
1.2036745662e+00
1.2037400566e+00
1.2038005497e+00
1.2038561774e+00
1.2039071071e+00
1.2039535352e+00
1.2039956816e+00
1.2040337842e+00
1.2040680936e+00
1.2040988681e+00
1.2041263699e+00
1.2041508605e+00
1.2041725979e+00
1.2041918332e+00
1.2042088086e+00
1.2042237549e+00
1.2042368905e+00
1.2042484198e+00
1.2042585324e+00
1.2042674029e+00
1.2042751908e+00
1.2042820399e+00
1.2042880792e+00
1.2042934234e+00
1.2042981730e+00
1.2043024152e+00
1.2043062249e+00
1.2043096655e+00
1.2043127895e+00
1.2043156398e+00
1.2043182504e+00
1.2043206475e+00
1.2043228503e+00
1.2043248723e+00
1.2043267215e+00
1.2043284020e+00
1.2043299146e+00
1.2043312575e+00
1.2043324272e+00
1.2043334194e+00
1.2043342293e+00
1.2043348524e+00
1.2043352853e+00
1.2043355257e+00
1.2043355733e+00
1.2043354296e+00
1.2043350985e+00
1.2043345864e+00
1.2043339021e+00
1.2043330569e+00
1.2043320643e+00
1.2043309401e+00
1.2043297021e+00
1.2043283694e+00
1.2043269624e+00
1.2043255024e+00
1.2043240110e+00
1.2043225097e+00
1.2043210197e+00
1.2043195612e+00
1.2043181540e+00
1.2043168168e+00
1.2043155681e+00
1.2043144265e+00
1.2043134115e+00
1.2043125450e+00
1.2043118518e+00
1.2043113600e+00
1.2043110988e+00
1.2043091597e+00
1.2010517730e+00
1.2010612223e+00
1.2010846087e+00
1.2011190079e+00
1.2011640641e+00
1.2012193209e+00
1.2012842236e+00
1.2013581278e+00
1.2014403087e+00
1.2015299743e+00
1.2016262766e+00
1.2017283266e+00
1.2018352067e+00
1.2019459858e+00
1.2020597314e+00
1.2021755240e+00
1.2022924671e+00
1.2024097005e+00
1.2025264082e+00
1.2026418285e+00
1.2027552596e+00
1.2028660670e+00
1.2029736856e+00
1.2030776246e+00
1.2031774665e+00
1.2032728693e+00
1.2033635631e+00
1.2034493493e+00
1.2035300961e+00
1.2036057352e+00
1.2036762558e+00
1.2037417006e+00
1.2038021584e+00
1.2038577601e+00
1.2039086707e+00
1.2039550851e+00
1.2039972210e+00
1.2040353142e+00
1.2040696130e+00
1.2041003737e+00
1.2041278558e+00
1.2041523188e+00
1.2041740183e+00
1.2041932033e+00
1.2042101138e+00
1.2042249788e+00
1.2042380148e+00
1.2042494248e+00
1.2042593972e+00
1.2042681059e+00
1.2042757095e+00
1.2042823522e+00
1.2042881634e+00
1.2042932586e+00
1.2042977397e+00
1.2043016960e+00
1.2043052049e+00
1.2043083327e+00
1.2043111354e+00
1.2043136597e+00
1.2043159440e+00
1.2043180189e+00
1.2043199086e+00
1.2043216311e+00
1.2043231996e+00
1.2043246231e+00
1.2043259069e+00
1.2043270535e+00
1.2043280633e+00
1.2043289355e+00
1.2043296679e+00
1.2043302583e+00
1.2043307045e+00
1.2043310049e+00
1.2043311588e+00
1.2043311667e+00
1.2043310307e+00
1.2043307546e+00
1.2043303438e+00
1.2043298057e+00
1.2043291495e+00
1.2043283859e+00
1.2043275275e+00
1.2043265879e+00
1.2043255822e+00
1.2043245258e+00
1.2043234352e+00
1.2043223266e+00
1.2043212164e+00
1.2043201206e+00
1.2043190548e+00
1.2043180337e+00
1.2043170718e+00
1.2043161829e+00
1.2043153802e+00
1.2043146765e+00
1.2043140834e+00
1.2043136096e+00
1.2043132562e+00
1.2043110660e+00
1.2010756142e+00
1.2010846087e+00
1.2011077079e+00
1.2011417709e+00
1.2011864364e+00
1.2012412438e+00
1.2013056382e+00
1.2013789761e+00
1.2014605368e+00
1.2015495320e+00
1.2016451199e+00
1.2017464167e+00
1.2018525121e+00
1.2019624807e+00
1.2020753976e+00
1.2021903487e+00
1.2023064449e+00
1.2024228312e+00
1.2025386982e+00
1.2026532885e+00
1.2027659060e+00
1.2028759196e+00
1.2029827689e+00
1.2030859655e+00
1.2031850956e+00
1.2032798185e+00
1.2033698669e+00
1.2034550427e+00
1.2035352155e+00
1.2036103167e+00
1.2036803363e+00
1.2037453158e+00
1.2038053443e+00
1.2038605507e+00
1.2039110998e+00
1.2039571844e+00
1.2039990212e+00
1.2040368441e+00
1.2040708997e+00
1.2041014423e+00
1.2041287299e+00
1.2041530200e+00
1.2041745663e+00
1.2041936160e+00
1.2042104074e+00
1.2042251677e+00
1.2042381120e+00
1.2042494414e+00
1.2042593434e+00
1.2042679902e+00
1.2042755397e+00
1.2042821347e+00
1.2042879041e+00
1.2042929625e+00
1.2042974115e+00
1.2043013398e+00
1.2043048248e+00
1.2043079325e+00
1.2043107191e+00
1.2043132313e+00
1.2043155077e+00
1.2043175793e+00
1.2043194704e+00
1.2043211995e+00
1.2043227799e+00
1.2043242209e+00
1.2043255279e+00
1.2043267035e+00
1.2043277482e+00
1.2043286605e+00
1.2043294384e+00
1.2043300790e+00
1.2043305795e+00
1.2043309376e+00
1.2043311517e+00
1.2043312214e+00
1.2043311479e+00
1.2043309339e+00
1.2043305838e+00
1.2043301040e+00
1.2043295026e+00
1.2043287898e+00
1.2043279770e+00
1.2043270775e+00
1.2043261056e+00
1.2043250768e+00
1.2043240069e+00
1.2043229123e+00
1.2043218096e+00
1.2043207151e+00
1.2043196443e+00
1.2043186126e+00
1.2043176342e+00
1.2043167224e+00
1.2043158892e+00
1.2043151449e+00
1.2043144968e+00
1.2043139473e+00
1.2043134899e+00
1.2043111653e+00
1.2011104237e+00
1.2011190079e+00
1.2011417709e+00
1.2011753950e+00
1.2012195214e+00
1.2012736930e+00
1.2013373576e+00
1.2014098778e+00
1.2014905381e+00
1.2015785586e+00
1.2016731049e+00
1.2017733033e+00
1.2018782517e+00
1.2019870356e+00
1.2020987386e+00
1.2022124572e+00
1.2023273108e+00
1.2024424541e+00
1.2025570850e+00
1.2026704553e+00
1.2027818748e+00
1.2028907200e+00
1.2029964352e+00
1.2030985377e+00
1.2031966172e+00
1.2032903372e+00
1.2033794320e+00
1.2034637065e+00
1.2035430308e+00
1.2036173375e+00
1.2036866159e+00
1.2037509079e+00
1.2038103007e+00
1.2038649228e+00
1.2039149364e+00
1.2039605330e+00
1.2040019265e+00
1.2040393487e+00
1.2040730435e+00
1.2041032628e+00
1.2041302615e+00
1.2041542946e+00
1.2041756130e+00
1.2041944615e+00
1.2042110756e+00
1.2042256802e+00
1.2042384879e+00
1.2042496980e+00
1.2042594955e+00
1.2042680511e+00
1.2042755210e+00
1.2042820466e+00
1.2042877554e+00
1.2042927610e+00
1.2042971640e+00
1.2043010527e+00
1.2043045038e+00
1.2043075830e+00
1.2043103462e+00
1.2043128403e+00
1.2043151037e+00
1.2043171675e+00
1.2043190563e+00
1.2043207887e+00
1.2043223783e+00
1.2043238343e+00
1.2043251623e+00
1.2043263649e+00
1.2043274424e+00
1.2043283933e+00
1.2043292149e+00
1.2043299039e+00
1.2043304571e+00
1.2043308711e+00
1.2043311437e+00
1.2043312736e+00
1.2043312608e+00
1.2043311070e+00
1.2043308157e+00
1.2043303922e+00
1.2043298439e+00
1.2043291797e+00
1.2043284106e+00
1.2043275491e+00
1.2043266091e+00
1.2043256056e+00
1.2043245544e+00
1.2043234718e+00
1.2043223745e+00
1.2043212789e+00
1.2043202010e+00
1.2043191561e+00
1.2043181586e+00
1.2043172214e+00
1.2043163559e+00
1.2043155710e+00
1.2043148723e+00
1.2043142603e+00
1.2043137283e+00
1.2043113433e+00
1.2011558642e+00
1.2011640641e+00
1.2011864364e+00
1.2012195214e+00
1.2012629683e+00
1.2013163258e+00
1.2013790499e+00
1.2014505099e+00
1.2015300010e+00
1.2016167525e+00
1.2017099423e+00
1.2018087075e+00
1.2019121597e+00
1.2020193958e+00
1.2021295132e+00
1.2022416200e+00
1.2023548487e+00
1.2024683647e+00
1.2025813782e+00
1.2026931498e+00
1.2028030003e+00
1.2029103132e+00
1.2030145418e+00
1.2031152088e+00
1.2032119104e+00
1.2033043136e+00
1.2033921573e+00
1.2034752481e+00
1.2035534585e+00
1.2036267212e+00
1.2036950265e+00
1.2037584148e+00
1.2038169727e+00
1.2038708265e+00
1.2039201365e+00
1.2039650912e+00
1.2040059020e+00
1.2040427970e+00
1.2040760173e+00
1.2041058107e+00
1.2041324291e+00
1.2041561236e+00
1.2041771419e+00
1.2041957250e+00
1.2042121054e+00
1.2042265047e+00
1.2042391326e+00
1.2042501853e+00
1.2042598456e+00
1.2042682816e+00
1.2042756473e+00
1.2042820822e+00
1.2042877122e+00
1.2042926494e+00
1.2042969934e+00
1.2043008312e+00
1.2043042388e+00
1.2043072814e+00
1.2043100145e+00
1.2043124845e+00
1.2043147301e+00
1.2043167820e+00
1.2043186650e+00
1.2043203977e+00
1.2043219938e+00
1.2043234625e+00
1.2043248095e+00
1.2043260372e+00
1.2043271458e+00
1.2043281335e+00
1.2043289973e+00
1.2043297332e+00
1.2043303373e+00
1.2043308058e+00
1.2043311352e+00
1.2043313235e+00
1.2043313696e+00
1.2043312743e+00
1.2043310400e+00
1.2043306710e+00
1.2043301736e+00
1.2043295562e+00
1.2043288287e+00
1.2043280032e+00
1.2043270931e+00
1.2043261129e+00
1.2043250784e+00
1.2043240060e+00
1.2043229122e+00
1.2043218137e+00
1.2043207268e+00
1.2043196670e+00
1.2043186488e+00
1.2043176853e+00
1.2043167876e+00
1.2043159643e+00
1.2043152207e+00
1.2043145579e+00
1.2043139713e+00
1.2043115690e+00
1.2012114913e+00
1.2012193209e+00
1.2012412438e+00
1.2012736930e+00
1.2013163258e+00
1.2013687010e+00
1.2014302830e+00
1.2015004534e+00
1.2015785181e+00
1.2016637209e+00
1.2017552523e+00
1.2018522658e+00
1.2019538867e+00
1.2020592290e+00
1.2021674043e+00
1.2022775375e+00
1.2023887745e+00
1.2025002967e+00
1.2026113263e+00
1.2027211381e+00
1.2028290631e+00
1.2029344968e+00
1.2030369003e+00
1.2031358058e+00
1.2032308151e+00
1.2033216020e+00
1.2034079087e+00
1.2034895460e+00
1.2035663876e+00
1.2036383683e+00
1.2037054774e+00
1.2037677556e+00
1.2038252872e+00
1.2038781969e+00
1.2039266418e+00
1.2039708076e+00
1.2040109016e+00
1.2040471485e+00
1.2040797847e+00
1.2041090544e+00
1.2041352046e+00
1.2041584825e+00
1.2041791311e+00
1.2041973876e+00
1.2042134802e+00
1.2042276267e+00
1.2042400331e+00
1.2042508924e+00
1.2042603839e+00
1.2042686729e+00
1.2042759109e+00
1.2042822349e+00
1.2042877687e+00
1.2042926228e+00
1.2042968949e+00
1.2043006711e+00
1.2043040261e+00
1.2043070245e+00
1.2043097209e+00
1.2043121617e+00
1.2043143847e+00
1.2043164210e+00
1.2043182949e+00
1.2043200251e+00
1.2043216253e+00
1.2043231047e+00
1.2043244688e+00
1.2043257200e+00
1.2043268581e+00
1.2043278812e+00
1.2043287855e+00
1.2043295669e+00
1.2043302206e+00
1.2043307418e+00
1.2043311265e+00
1.2043313716e+00
1.2043314749e+00
1.2043314363e+00
1.2043312571e+00
1.2043309407e+00
1.2043304924e+00
1.2043299197e+00
1.2043292319e+00
1.2043284404e+00
1.2043275582e+00
1.2043265995e+00
1.2043255799e+00
1.2043245157e+00
1.2043234237e+00
1.2043223208e+00
1.2043212235e+00
1.2043201477e+00
1.2043191081e+00
1.2043181183e+00
1.2043171894e+00
1.2043163305e+00
1.2043155476e+00
1.2043148429e+00
1.2043142147e+00
1.2043118191e+00
1.2012767581e+00
1.2012842236e+00
1.2013056382e+00
1.2013373576e+00
1.2013790499e+00
1.2014302830e+00
1.2014905346e+00
1.2015591983e+00
1.2016355956e+00
1.2017189847e+00
1.2018085744e+00
1.2019035340e+00
1.2020030087e+00
1.2021061290e+00
1.2022120267e+00
1.2023198428e+00
1.2024287429e+00
1.2025379234e+00
1.2026466241e+00
1.2027541333e+00
1.2028597971e+00
1.2029630219e+00
1.2030632815e+00
1.2031601160e+00
1.2032531368e+00
1.2033420229e+00
1.2034265232e+00
1.2035064508e+00
1.2035816833e+00
1.2036521557e+00
1.2037178585e+00
1.2037788304e+00
1.2038351552e+00
1.2038869539e+00
1.2039343812e+00
1.2039776185e+00
1.2040168693e+00
1.2040523532e+00
1.2040843022e+00
1.2041129551e+00
1.2041385542e+00
1.2041613413e+00
1.2041815547e+00
1.2041994263e+00
1.2042151799e+00
1.2042290287e+00
1.2042411743e+00
1.2042518057e+00
1.2042610986e+00
1.2042692150e+00
1.2042763029e+00
1.2042824969e+00
1.2042879182e+00
1.2042926750e+00
1.2042968635e+00
1.2043005679e+00
1.2043038619e+00
1.2043068088e+00
1.2043094627e+00
1.2043118690e+00
1.2043140654e+00
1.2043160824e+00
1.2043179443e+00
1.2043196696e+00
1.2043212718e+00
1.2043227600e+00
1.2043241396e+00
1.2043254127e+00
1.2043265790e+00
1.2043276360e+00
1.2043285797e+00
1.2043294052e+00
1.2043301069e+00
1.2043306795e+00
1.2043311180e+00
1.2043314182e+00
1.2043315771e+00
1.2043315935e+00
1.2043314676e+00
1.2043312018e+00
1.2043308007e+00
1.2043302708e+00
1.2043296207e+00
1.2043288613e+00
1.2043280051e+00
1.2043270660e+00
1.2043260595e+00
1.2043250020e+00
1.2043239103e+00
1.2043228016e+00
1.2043216928e+00
1.2043206002e+00
1.2043195390e+00
1.2043185232e+00
1.2043175645e+00
1.2043166728e+00
1.2043158550e+00
1.2043151151e+00
1.2043144537e+00
1.2043120773e+00
1.2013510237e+00
1.2013581278e+00
1.2013789761e+00
1.2014098778e+00
1.2014505099e+00
1.2015004534e+00
1.2015591983e+00
1.2016261544e+00
1.2017006588e+00
1.2017819891e+00
1.2018693716e+00
1.2019619976e+00
1.2020590309e+00
1.2021596249e+00
1.2022629304e+00
1.2023681110e+00
1.2024743505e+00
1.2025808662e+00
1.2026869147e+00
1.2027918027e+00
1.2028948906e+00
1.2029956005e+00
1.2030934171e+00
1.2031878930e+00
1.2032786474e+00
1.2033653684e+00
1.2034478094e+00
1.2035257894e+00
1.2035991874e+00
1.2036679412e+00
1.2037320404e+00
1.2037915238e+00
1.2038464723e+00
1.2038970048e+00
1.2039432716e+00
1.2039854505e+00
1.2040237394e+00
1.2040583534e+00
1.2040895184e+00
1.2041174680e+00
1.2041424383e+00
1.2041646656e+00
1.2041843822e+00
1.2042018148e+00
1.2042171815e+00
1.2042306905e+00
1.2042425386e+00
1.2042529102e+00
1.2042619766e+00
1.2042698962e+00
1.2042768133e+00
1.2042828594e+00
1.2042881529e+00
1.2042927996e+00
1.2042968933e+00
1.2043005167e+00
1.2043037417e+00
1.2043066306e+00
1.2043092364e+00
1.2043116037e+00
1.2043137697e+00
1.2043157643e+00
1.2043176116e+00
1.2043193297e+00
1.2043209320e+00
1.2043224275e+00
1.2043238211e+00
1.2043251150e+00
1.2043263082e+00
1.2043273980e+00
1.2043283798e+00
1.2043292481e+00
1.2043299967e+00
1.2043306193e+00
1.2043311100e+00
1.2043314638e+00
1.2043316766e+00
1.2043317462e+00
1.2043316718e+00
1.2043314549e+00
1.2043310990e+00
1.2043306100e+00
1.2043299958e+00
1.2043292666e+00
1.2043284345e+00
1.2043275132e+00
1.2043265182e+00
1.2043254658e+00
1.2043243730e+00
1.2043232574e+00
1.2043221362e+00
1.2043210262e+00
1.2043199433e+00
1.2043189020e+00
1.2043179150e+00
1.2043169928e+00
1.2043161436e+00
1.2043153730e+00
1.2043146838e+00
1.2043123317e+00
1.2014335653e+00
1.2014403087e+00
1.2014605368e+00
1.2014905381e+00
1.2015300010e+00
1.2015785181e+00
1.2016355956e+00
1.2017006588e+00
1.2017730649e+00
1.2018521098e+00
1.2019370433e+00
1.2020270769e+00
1.2021213995e+00
1.2022191859e+00
1.2023196120e+00
1.2024218626e+00
1.2025251456e+00
1.2026286979e+00
1.2027317984e+00
1.2028337709e+00
1.2029339949e+00
1.2030319068e+00
1.2031270067e+00
1.2032188581e+00
1.2033070919e+00
1.2033914032e+00
1.2034715536e+00
1.2035473656e+00
1.2036187227e+00
1.2036855634e+00
1.2037478785e+00
1.2038057048e+00
1.2038591218e+00
1.2039082446e+00
1.2039532200e+00
1.2039942203e+00
1.2040314387e+00
1.2040650840e+00
1.2040953764e+00
1.2041225426e+00
1.2041468128e+00
1.2041684165e+00
1.2041875800e+00
1.2042045235e+00
1.2042194593e+00
1.2042325899e+00
1.2042441066e+00
1.2042541888e+00
1.2042630033e+00
1.2042707038e+00
1.2042774311e+00
1.2042833130e+00
1.2042884647e+00
1.2042929892e+00
1.2042969781e+00
1.2043005119e+00
1.2043036610e+00
1.2043064859e+00
1.2043090386e+00
1.2043113629e+00
1.2043134950e+00
1.2043154645e+00
1.2043172949e+00
1.2043190040e+00
1.2043206049e+00
1.2043221062e+00
1.2043235127e+00
1.2043248261e+00
1.2043260453e+00
1.2043271668e+00
1.2043281857e+00
1.2043290957e+00
1.2043298899e+00
1.2043305613e+00
1.2043311029e+00
1.2043315088e+00
1.2043317740e+00
1.2043318951e+00
1.2043318704e+00
1.2043317005e+00
1.2043313881e+00
1.2043309380e+00
1.2043303577e+00
1.2043296568e+00
1.2043288470e+00
1.2043279419e+00
1.2043269567e+00
1.2043259079e+00
1.2043248128e+00
1.2043236891e+00
1.2043225547e+00
1.2043214270e+00
1.2043203223e+00
1.2043192561e+00
1.2043182417e+00
1.2043172909e+00
1.2043164129e+00
1.2043156147e+00
1.2043149009e+00
1.2043125739e+00
1.2015235900e+00
1.2015299743e+00
1.2015495320e+00
1.2015785586e+00
1.2016167525e+00
1.2016637209e+00
1.2017189847e+00
1.2017819891e+00
1.2018521098e+00
1.2019286667e+00
1.2020109310e+00
1.2020981405e+00
1.2021895074e+00
1.2022842338e+00
1.2023815191e+00
1.2024805752e+00
1.2025806323e+00
1.2026809531e+00
1.2027808363e+00
1.2028796286e+00
1.2029767267e+00
1.2030715859e+00
1.2031637201e+00
1.2032527077e+00
1.2033381894e+00
1.2034198711e+00
1.2034975202e+00
1.2035709661e+00
1.2036400945e+00
1.2037048470e+00
1.2037652136e+00
1.2038212310e+00
1.2038729754e+00
1.2039205591e+00
1.2039641240e+00
1.2040038375e+00
1.2040398866e+00
1.2040724741e+00
1.2041018131e+00
1.2041281239e+00
1.2041516293e+00
1.2041725519e+00
1.2041911110e+00
1.2042075203e+00
1.2042219854e+00
1.2042347025e+00
1.2042458573e+00
1.2042556235e+00
1.2042641628e+00
1.2042716244e+00
1.2042781446e+00
1.2042838475e+00
1.2042888447e+00
1.2042932364e+00
1.2042971115e+00
1.2043005481e+00
1.2043036148e+00
1.2043063705e+00
1.2043088658e+00
1.2043111434e+00
1.2043132388e+00
1.2043151809e+00
1.2043169924e+00
1.2043186909e+00
1.2043202891e+00
1.2043217951e+00
1.2043232136e+00
1.2043245458e+00
1.2043257900e+00
1.2043269425e+00
1.2043279975e+00
1.2043289483e+00
1.2043297870e+00
1.2043305059e+00
1.2043310972e+00
1.2043315537e+00
1.2043318697e+00
1.2043320407e+00
1.2043320641e+00
1.2043319394e+00
1.2043316684e+00
1.2043312554e+00
1.2043307072e+00
1.2043300327e+00
1.2043292434e+00
1.2043283527e+00
1.2043273757e+00
1.2043263291e+00
1.2043252303e+00
1.2043240976e+00
1.2043229493e+00
1.2043218033e+00
1.2043206769e+00
1.2043195861e+00
1.2043185453e+00
1.2043175671e+00
1.2043166621e+00
1.2043158384e+00
1.2043151020e+00
1.2043127973e+00
1.2016202493e+00
1.2016262766e+00
1.2016451199e+00
1.2016731049e+00
1.2017099423e+00
1.2017552523e+00
1.2018085744e+00
1.2018693716e+00
1.2019370433e+00
1.2020109310e+00
1.2020903329e+00
1.2021745112e+00
1.2022627071e+00
1.2023541479e+00
1.2024480627e+00
1.2025436879e+00
1.2026402824e+00
1.2027371318e+00
1.2028335607e+00
1.2029289363e+00
1.2030226776e+00
1.2031142566e+00
1.2032032056e+00
1.2032891156e+00
1.2033716411e+00
1.2034504965e+00
1.2035254587e+00
1.2035963612e+00
1.2036630954e+00
1.2037256031e+00
1.2037838763e+00
1.2038379492e+00
1.2038878964e+00
1.2039338256e+00
1.2039758747e+00
1.2040142049e+00
1.2040489974e+00
1.2040804477e+00
1.2041087622e+00
1.2041341532e+00
1.2041568364e+00
1.2041770268e+00
1.2041949363e+00
1.2042107711e+00
1.2042247301e+00
1.2042370027e+00
1.2042477684e+00
1.2042571949e+00
1.2042654387e+00
1.2042726435e+00
1.2042789414e+00
1.2042844521e+00
1.2042892838e+00
1.2042935333e+00
1.2042972865e+00
1.2043006194e+00
1.2043035981e+00
1.2043062800e+00
1.2043087142e+00
1.2043109422e+00
1.2043129985e+00
1.2043149110e+00
1.2043167022e+00
1.2043183890e+00
1.2043199834e+00
1.2043214935e+00
1.2043229232e+00
1.2043242734e+00
1.2043255421e+00
1.2043267248e+00
1.2043278152e+00
1.2043288059e+00
1.2043296883e+00
1.2043304536e+00
1.2043310932e+00
1.2043315991e+00
1.2043319644e+00
1.2043321837e+00
1.2043322533e+00
1.2043321720e+00
1.2043319407e+00
1.2043315630e+00
1.2043310448e+00
1.2043303949e+00
1.2043296244e+00
1.2043287463e+00
1.2043277760e+00
1.2043267301e+00
1.2043256265e+00
1.2043244837e+00
1.2043233207e+00
1.2043221560e+00
1.2043210076e+00
1.2043198924e+00
1.2043188257e+00
1.2043178211e+00
1.2043168901e+00
1.2043160421e+00
1.2043152841e+00
1.2043129972e+00
1.2017226519e+00
1.2017283266e+00
1.2017464167e+00
1.2017733033e+00
1.2018087075e+00
1.2018522658e+00
1.2019035340e+00
1.2019619976e+00
1.2020270769e+00
1.2020981405e+00
1.2021745112e+00
1.2022554811e+00
1.2023403177e+00
1.2024282798e+00
1.2025186229e+00
1.2026106147e+00
1.2027035393e+00
1.2027967114e+00
1.2028894789e+00
1.2029812345e+00
1.2030714170e+00
1.2031595203e+00
1.2032450921e+00
1.2033277407e+00
1.2034071316e+00
1.2034829917e+00
1.2035551045e+00
1.2036233114e+00
1.2036875063e+00
1.2037476348e+00
1.2038036877e+00
1.2038556994e+00
1.2039037405e+00
1.2039479159e+00
1.2039883575e+00
1.2040252212e+00
1.2040586809e+00
1.2040889255e+00
1.2041161532e+00
1.2041405691e+00
1.2041623803e+00
1.2041817942e+00
1.2041990145e+00
1.2042142402e+00
1.2042276623e+00
1.2042394637e+00
1.2042498167e+00
1.2042588832e+00
1.2042668134e+00
1.2042737462e+00
1.2042798086e+00
1.2042851160e+00
1.2042897725e+00
1.2042938717e+00
1.2042974963e+00
1.2043007197e+00
1.2043036058e+00
1.2043062101e+00
1.2043085802e+00
1.2043107561e+00
1.2043127712e+00
1.2043146529e+00
1.2043164226e+00
1.2043180967e+00
1.2043196867e+00
1.2043212002e+00
1.2043226407e+00
1.2043240086e+00
1.2043253012e+00
1.2043265136e+00
1.2043276389e+00
1.2043286688e+00