# vtk DataFile Version 2.0
Blank
ASCII
DATASET STRUCTURED_GRID
DIMENSIONS 101 101 2
POINTS 20402 float
0.0000000000e+00 0.0000000000e+00 0.0000000000e+00
1.0000000000e-02 0.0000000000e+00 0.0000000000e+00
2.0000000000e-02 0.0000000000e+00 0.0000000000e+00
3.0000000000e-02 0.0000000000e+00 0.0000000000e+00
4.0000000000e-02 0.0000000000e+00 0.0000000000e+00
5.0000000000e-02 0.0000000000e+00 0.0000000000e+00
6.0000000000e-02 0.0000000000e+00 0.0000000000e+00
7.0000000000e-02 0.0000000000e+00 0.0000000000e+00
8.0000000000e-02 0.0000000000e+00 0.0000000000e+00
9.0000000000e-02 0.0000000000e+00 0.0000000000e+00
1.0000000000e-01 0.0000000000e+00 0.0000000000e+00
1.1000000000e-01 0.0000000000e+00 0.0000000000e+00
1.2000000000e-01 0.0000000000e+00 0.0000000000e+00
1.3000000000e-01 0.0000000000e+00 0.0000000000e+00
1.4000000000e-01 0.0000000000e+00 0.0000000000e+00
1.5000000000e-01 0.0000000000e+00 0.0000000000e+00
1.6000000000e-01 0.0000000000e+00 0.0000000000e+00
1.7000000000e-01 0.0000000000e+00 0.0000000000e+00
1.8000000000e-01 0.0000000000e+00 0.0000000000e+00
1.9000000000e-01 0.0000000000e+00 0.0000000000e+00
2.0000000000e-01 0.0000000000e+00 0.0000000000e+00
2.1000000000e-01 0.0000000000e+00 0.0000000000e+00
2.2000000000e-01 0.0000000000e+00 0.0000000000e+00
2.3000000000e-01 0.0000000000e+00 0.0000000000e+00
2.4000000000e-01 0.0000000000e+00 0.0000000000e+00
2.5000000000e-01 0.0000000000e+00 0.0000000000e+00
2.6000000000e-01 0.0000000000e+00 0.0000000000e+00
2.7000000000e-01 0.0000000000e+00 0.0000000000e+00
2.8000000000e-01 0.0000000000e+00 0.0000000000e+00
2.9000000000e-01 0.0000000000e+00 0.0000000000e+00
3.0000000000e-01 0.0000000000e+00 0.0000000000e+00
3.1000000000e-01 0.0000000000e+00 0.0000000000e+00
3.2000000000e-01 0.0000000000e+00 0.0000000000e+00
3.3000000000e-01 0.0000000000e+00 0.0000000000e+00
3.4000000000e-01 0.0000000000e+00 0.0000000000e+00
3.5000000000e-01 0.0000000000e+00 0.0000000000e+00
3.6000000000e-01 0.0000000000e+00 0.0000000000e+00
3.7000000000e-01 0.0000000000e+00 0.0000000000e+00
3.8000000000e-01 0.0000000000e+00 0.0000000000e+00
3.9000000000e-01 0.0000000000e+00 0.0000000000e+00
4.0000000000e-01 0.0000000000e+00 0.0000000000e+00
4.1000000000e-01 0.0000000000e+00 0.0000000000e+00
4.2000000000e-01 0.0000000000e+00 0.0000000000e+00
4.3000000000e-01 0.0000000000e+00 0.0000000000e+00
4.4000000000e-01 0.0000000000e+00 0.0000000000e+00
4.5000000000e-01 0.0000000000e+00 0.0000000000e+00
4.6000000000e-01 0.0000000000e+00 0.0000000000e+00
4.7000000000e-01 0.0000000000e+00 0.0000000000e+00
4.8000000000e-01 0.0000000000e+00 0.0000000000e+00
4.9000000000e-01 0.0000000000e+00 0.0000000000e+00
5.0000000000e-01 0.0000000000e+00 0.0000000000e+00
5.1000000000e-01 0.0000000000e+00 0.0000000000e+00
5.2000000000e-01 0.0000000000e+00 0.0000000000e+00
5.3000000000e-01 0.0000000000e+00 0.0000000000e+00
5.4000000000e-01 0.0000000000e+00 0.0000000000e+00
5.5000000000e-01 0.0000000000e+00 0.0000000000e+00
5.6000000000e-01 0.0000000000e+00 0.0000000000e+00
5.7000000000e-01 0.0000000000e+00 0.0000000000e+00
5.8000000000e-01 0.0000000000e+00 0.0000000000e+00
5.9000000000e-01 0.0000000000e+00 0.0000000000e+00
6.0000000000e-01 0.0000000000e+00 0.0000000000e+00
6.1000000000e-01 0.0000000000e+00 0.0000000000e+00
6.2000000000e-01 0.0000000000e+00 0.0000000000e+00
6.3000000000e-01 0.0000000000e+00 0.0000000000e+00
6.4000000000e-01 0.0000000000e+00 0.0000000000e+00
6.5000000000e-01 0.0000000000e+00 0.0000000000e+00
6.6000000000e-01 0.0000000000e+00 0.0000000000e+00
6.7000000000e-01 0.0000000000e+00 0.0000000000e+00
6.8000000000e-01 0.0000000000e+00 0.0000000000e+00
6.9000000000e-01 0.0000000000e+00 0.0000000000e+00
7.0000000000e-01 0.0000000000e+00 0.0000000000e+00
7.1000000000e-01 0.0000000000e+00 0.0000000000e+00
7.2000000000e-01 0.0000000000e+00 0.0000000000e+00
7.3000000000e-01 0.0000000000e+00 0.0000000000e+00
7.4000000000e-01 0.0000000000e+00 0.0000000000e+00
7.5000000000e-01 0.0000000000e+00 0.0000000000e+00
7.6000000000e-01 0.0000000000e+00 0.0000000000e+00
7.7000000000e-01 0.0000000000e+00 0.0000000000e+00
7.8000000000e-01 0.0000000000e+00 0.0000000000e+00
7.9000000000e-01 0.0000000000e+00 0.0000000000e+00
8.0000000000e-01 0.0000000000e+00 0.0000000000e+00
8.1000000000e-01 0.0000000000e+00 0.0000000000e+00
8.2000000000e-01 0.0000000000e+00 0.0000000000e+00
8.3000000000e-01 0.0000000000e+00 0.0000000000e+00
8.4000000000e-01 0.0000000000e+00 0.0000000000e+00
8.5000000000e-01 0.0000000000e+00 0.0000000000e+00
8.6000000000e-01 0.0000000000e+00 0.0000000000e+00
8.7000000000e-01 0.0000000000e+00 0.0000000000e+00
8.8000000000e-01 0.0000000000e+00 0.0000000000e+00
8.9000000000e-01 0.0000000000e+00 0.0000000000e+00
9.0000000000e-01 0.0000000000e+00 0.0000000000e+00
9.1000000000e-01 0.0000000000e+00 0.0000000000e+00
9.2000000000e-01 0.0000000000e+00 0.0000000000e+00
9.3000000000e-01 0.0000000000e+00 0.0000000000e+00
9.4000000000e-01 0.0000000000e+00 0.0000000000e+00
9.5000000000e-01 0.0000000000e+00 0.0000000000e+00
9.6000000000e-01 0.0000000000e+00 0.0000000000e+00
9.7000000000e-01 0.0000000000e+00 0.0000000000e+00
9.8000000000e-01 0.0000000000e+00 0.0000000000e+00
9.9000000000e-01 0.0000000000e+00 0.0000000000e+00
1.0000000000e+00 0.0000000000e+00 0.0000000000e+00
0.0000000000e+00 1.0000000000e-02 0.0000000000e+00
1.0000000000e-02 1.0000000000e-02 0.0000000000e+00
2.0000000000e-02 1.0000000000e-02 0.0000000000e+00
3.0000000000e-02 1.0000000000e-02 0.0000000000e+00
4.0000000000e-02 1.0000000000e-02 0.0000000000e+00
5.0000000000e-02 1.0000000000e-02 0.0000000000e+00
6.0000000000e-02 1.0000000000e-02 0.0000000000e+00
7.0000000000e-02 1.0000000000e-02 0.0000000000e+00
8.0000000000e-02 1.0000000000e-02 0.0000000000e+00
9.0000000000e-02 1.0000000000e-02 0.0000000000e+00
1.0000000000e-01 1.0000000000e-02 0.0000000000e+00
1.1000000000e-01 1.0000000000e-02 0.0000000000e+00
1.2000000000e-01 1.0000000000e-02 0.0000000000e+00
1.3000000000e-01 1.0000000000e-02 0.0000000000e+00
1.4000000000e-01 1.0000000000e-02 0.0000000000e+00
1.5000000000e-01 1.0000000000e-02 0.0000000000e+00
1.6000000000e-01 1.0000000000e-02 0.0000000000e+00
1.7000000000e-01 1.0000000000e-02 0.0000000000e+00
1.8000000000e-01 1.0000000000e-02 0.0000000000e+00
1.9000000000e-01 1.0000000000e-02 0.0000000000e+00
2.0000000000e-01 1.0000000000e-02 0.0000000000e+00
2.1000000000e-01 1.0000000000e-02 0.0000000000e+00
2.2000000000e-01 1.0000000000e-02 0.0000000000e+00
2.3000000000e-01 1.0000000000e-02 0.0000000000e+00
2.4000000000e-01 1.0000000000e-02 0.0000000000e+00
2.5000000000e-01 1.0000000000e-02 0.0000000000e+00
2.6000000000e-01 1.0000000000e-02 0.0000000000e+00
2.7000000000e-01 1.0000000000e-02 0.0000000000e+00
2.8000000000e-01 1.0000000000e-02 0.0000000000e+00
2.9000000000e-01 1.0000000000e-02 0.0000000000e+00
3.0000000000e-01 1.0000000000e-02 0.0000000000e+00
3.1000000000e-01 1.0000000000e-02 0.0000000000e+00
3.2000000000e-01 1.0000000000e-02 0.0000000000e+00
3.3000000000e-01 1.0000000000e-02 0.0000000000e+00
3.4000000000e-01 1.0000000000e-02 0.0000000000e+00
3.5000000000e-01 1.0000000000e-02 0.0000000000e+00
3.6000000000e-01 1.0000000000e-02 0.0000000000e+00
3.7000000000e-01 1.0000000000e-02 0.0000000000e+00
3.8000000000e-01 1.0000000000e-02 0.0000000000e+00
3.9000000000e-01 1.0000000000e-02 0.0000000000e+00
4.0000000000e-01 1.0000000000e-02 0.0000000000e+00
4.1000000000e-01 1.0000000000e-02 0.0000000000e+00
4.2000000000e-01 1.0000000000e-02 0.0000000000e+00
4.3000000000e-01 1.0000000000e-02 0.0000000000e+00
4.4000000000e-01 1.0000000000e-02 0.0000000000e+00
4.5000000000e-01 1.0000000000e-02 0.0000000000e+00
4.6000000000e-01 1.0000000000e-02 0.0000000000e+00
4.7000000000e-01 1.0000000000e-02 0.0000000000e+00
4.8000000000e-01 1.0000000000e-02 0.0000000000e+00
4.9000000000e-01 1.0000000000e-02 0.0000000000e+00
5.0000000000e-01 1.0000000000e-02 0.0000000000e+00
5.1000000000e-01 1.0000000000e-02 0.0000000000e+00
5.2000000000e-01 1.0000000000e-02 0.0000000000e+00
5.3000000000e-01 1.0000000000e-02 0.0000000000e+00
5.4000000000e-01 1.0000000000e-02 0.0000000000e+00
5.5000000000e-01 1.0000000000e-02 0.0000000000e+00
5.6000000000e-01 1.0000000000e-02 0.0000000000e+00
5.7000000000e-01 1.0000000000e-02 0.0000000000e+00
5.8000000000e-01 1.0000000000e-02 0.0000000000e+00
5.9000000000e-01 1.0000000000e-02 0.0000000000e+00
6.0000000000e-01 1.0000000000e-02 0.0000000000e+00
6.1000000000e-01 1.0000000000e-02 0.0000000000e+00
6.2000000000e-01 1.0000000000e-02 0.0000000000e+00
6.3000000000e-01 1.0000000000e-02 0.0000000000e+00
6.4000000000e-01 1.0000000000e-02 0.0000000000e+00
6.5000000000e-01 1.0000000000e-02 0.0000000000e+00
6.6000000000e-01 1.0000000000e-02 0.0000000000e+00
6.7000000000e-01 1.0000000000e-02 0.0000000000e+00
6.8000000000e-01 1.0000000000e-02 0.0000000000e+00
6.9000000000e-01 1.0000000000e-02 0.0000000000e+00
7.0000000000e-01 1.0000000000e-02 0.0000000000e+00
7.1000000000e-01 1.0000000000e-02 0.0000000000e+00
7.2000000000e-01 1.0000000000e-02 0.0000000000e+00
7.3000000000e-01 1.0000000000e-02 0.0000000000e+00
7.4000000000e-01 1.0000000000e-02 0.0000000000e+00
7.5000000000e-01 1.0000000000e-02 0.0000000000e+00
7.6000000000e-01 1.0000000000e-02 0.0000000000e+00
7.7000000000e-01 1.0000000000e-02 0.0000000000e+00
7.8000000000e-01 1.0000000000e-02 0.0000000000e+00
7.9000000000e-01 1.0000000000e-02 0.0000000000e+00
8.0000000000e-01 1.0000000000e-02 0.0000000000e+00
8.1000000000e-01 1.0000000000e-02 0.0000000000e+00
8.2000000000e-01 1.0000000000e-02 0.0000000000e+00
8.3000000000e-01 1.0000000000e-02 0.0000000000e+00
8.4000000000e-01 1.0000000000e-02 0.0000000000e+00
8.5000000000e-01 1.0000000000e-02 0.0000000000e+00
8.6000000000e-01 1.0000000000e-02 0.0000000000e+00
8.7000000000e-01 1.0000000000e-02 0.0000000000e+00
8.8000000000e-01 1.0000000000e-02 0.0000000000e+00
8.9000000000e-01 1.0000000000e-02 0.0000000000e+00
9.0000000000e-01 1.0000000000e-02 0.0000000000e+00
9.1000000000e-01 1.0000000000e-02 0.0000000000e+00
9.2000000000e-01 1.0000000000e-02 0.0000000000e+00
[...]
CELL_DATA 10000

SCALARS massDensity float
LOOKUP_TABLE default
1.2015628235e+00
1.2015742001e+00
1.2015892803e+00
1.2016123538e+00
1.2016431623e+00
1.2016813925e+00
1.2017266821e+00
1.2017786232e+00
1.2018367653e+00
1.2019006188e+00
1.2019696606e+00
1.2020433395e+00
1.2021210829e+00
1.2022023034e+00
1.2022864057e+00
1.2023727932e+00
1.2024608753e+00
1.2025500730e+00
1.2026398254e+00
1.2027295949e+00
1.2028188723e+00
1.2029071808e+00
1.2029940796e+00
1.2030791668e+00
1.2031620816e+00
1.2032425056e+00
1.2033201635e+00
1.2033948234e+00
1.2034662962e+00
1.2035344344e+00
1.2035991305e+00
1.2036603150e+00
1.2037179544e+00
1.2037720477e+00
1.2038226242e+00
1.2038697400e+00
1.2039134751e+00
1.2039539299e+00
1.2039912222e+00
1.2040254841e+00
1.2040568588e+00
1.2040854979e+00
1.2041115586e+00
1.2041352017e+00
1.2041565885e+00
1.2041758797e+00
1.2041932332e+00
1.2042088026e+00
1.2042227360e+00
1.2042351750e+00
1.2042462542e+00
1.2042560999e+00
1.2042648303e+00
1.2042725552e+00
1.2042793758e+00
1.2042853849e+00
1.2042906669e+00
1.2042952986e+00
1.2042993490e+00
1.2043028800e+00
1.2043059472e+00
1.2043085999e+00
1.2043108819e+00
1.2043128323e+00
1.2043144855e+00
1.2043158721e+00
1.2043170195e+00
1.2043179518e+00
1.2043186909e+00
1.2043192565e+00
1.2043196664e+00
1.2043199369e+00
1.2043200833e+00
1.2043201195e+00
1.2043200588e+00
1.2043199137e+00
1.2043196959e+00
1.2043194166e+00
1.2043190867e+00
1.2043187163e+00
1.2043183152e+00
1.2043178924e+00
1.2043174568e+00
1.2043170163e+00
1.2043165785e+00
1.2043161504e+00
1.2043157383e+00
1.2043153480e+00
1.2043149847e+00
1.2043146532e+00
1.2043143581e+00
1.2043141039e+00
1.2043138953e+00
1.2043137378e+00
1.2043136377e+00
1.2043136031e+00
1.2043136436e+00
1.2043137702e+00
1.2043139932e+00
1.2043135700e+00
1.2015742001e+00
1.2015864055e+00
1.2016018770e+00
1.2016251561e+00
1.2016560397e+00
1.2016942520e+00
1.2017394553e+00
1.2017912581e+00
1.2018492206e+00
1.2019128615e+00
1.2019816635e+00
1.2020550803e+00
1.2021325432e+00
1.2022134683e+00
1.2022972631e+00
1.2023833340e+00
1.2024710928e+00
1.2025599628e+00
1.2026493852e+00
1.2027388245e+00
1.2028277731e+00
1.2029157557e+00
1.2030023329e+00
1.2030871041e+00
1.2031697094e+00
1.2032498312e+00
1.2033271949e+00
1.2034015691e+00
1.2034727649e+00
1.2035406348e+00
1.2036050715e+00
1.2036660053e+00
1.2037234021e+00
1.2037772608e+00
1.2038276099e+00
1.2038745053e+00
1.2039180259e+00
1.2039582716e+00
1.2039953594e+00
1.2040294206e+00
1.2040605976e+00
1.2040890414e+00
1.2041149085e+00
1.2041383589e+00
1.2041595535e+00
1.2041786525e+00
1.2041958135e+00
1.2042111897e+00
1.2042249292e+00
1.2042371738e+00
1.2042480579e+00
1.2042577085e+00
1.2042662442e+00
1.2042737754e+00
1.2042804040e+00
1.2042862238e+00
1.2042913204e+00
1.2042957713e+00
1.2042996469e+00
1.2043030105e+00
1.2043059187e+00
1.2043084221e+00
1.2043105658e+00
1.2043123900e+00
1.2043139301e+00
1.2043152177e+00
1.2043162809e+00
1.2043171446e+00
1.2043178309e+00
1.2043183598e+00
1.2043187491e+00
1.2043190150e+00
1.2043191721e+00
1.2043192340e+00
1.2043192129e+00
1.2043191203e+00
1.2043189667e+00
1.2043187620e+00
1.2043185156e+00
1.2043182358e+00
1.2043179310e+00
1.2043176084e+00
1.2043172750e+00
1.2043169374e+00
1.2043166014e+00
1.2043162725e+00
1.2043159555e+00
1.2043156550e+00
1.2043153751e+00
1.2043151195e+00
1.2043148917e+00
1.2043146953e+00
1.2043145337e+00
1.2043144106e+00
1.2043143302e+00
1.2043142969e+00
1.2043143155e+00
1.2043143905e+00
1.2043145245e+00
1.2043138941e+00
1.2015892803e+00
1.2016018770e+00
1.2016174385e+00
1.2016407004e+00
1.2016714799e+00
1.2017095169e+00
1.2017544858e+00
1.2018060037e+00
1.2018636380e+00
1.2019269127e+00
1.2019953156e+00
1.2020683044e+00
1.2021453147e+00
1.2022257662e+00
1.2023090706e+00
1.2023946377e+00
1.2024818830e+00
1.2025702331e+00
1.2026591329e+00
1.2027480495e+00
1.2028364786e+00
1.2029239476e+00
1.2030100199e+00
1.2030942968e+00
1.2031764209e+00
1.2032560761e+00
1.2033329897e+00
1.2034069315e+00
1.2034777137e+00
1.2035451898e+00
1.2036092529e+00
1.2036698339e+00
1.2037268991e+00
1.2037804470e+00
1.2038305064e+00
1.2038771325e+00
1.2039204041e+00
1.2039604204e+00
1.2039972977e+00
1.2040311665e+00
1.2040621686e+00
1.2040904538e+00
1.2041161778e+00
1.2041394995e+00
1.2041605789e+00
1.2041795751e+00
1.2041966446e+00
1.2042119397e+00
1.2042256074e+00
1.2042377886e+00
1.2042486167e+00
1.2042582177e+00
1.2042667094e+00
1.2042742013e+00
1.2042807949e+00
1.2042865829e+00
1.2042916503e+00
1.2042960744e+00
1.2042999249e+00
1.2043032646e+00
1.2043061500e+00
1.2043086313e+00
1.2043107535e+00
1.2043125565e+00
1.2043140758e+00
1.2043153429e+00
1.2043163859e+00
1.2043172298e+00
1.2043178967e+00
1.2043184067e+00
1.2043187778e+00
1.2043190262e+00
1.2043191666e+00
1.2043192127e+00
1.2043191767e+00
1.2043190703e+00
1.2043189039e+00
1.2043186876e+00
1.2043184304e+00
1.2043181410e+00
1.2043178273e+00
1.2043174967e+00
1.2043171562e+00
1.2043168120e+00
1.2043164701e+00
1.2043161356e+00
1.2043158136e+00
1.2043155084e+00
1.2043152241e+00
1.2043149645e+00
1.2043147328e+00
1.2043145326e+00
1.2043143669e+00
1.2043142389e+00
1.2043141520e+00
1.2043141090e+00
1.2043141127e+00
1.2043141647e+00
1.2043142640e+00
1.2043134905e+00
1.2016123538e+00
1.2016251561e+00
1.2016407004e+00
1.2016638503e+00
1.2016944269e+00
1.2017321779e+00
1.2017767857e+00
1.2018278750e+00
1.2018850200e+00
1.2019477514e+00
1.2020155625e+00
1.2020879175e+00
1.2021642573e+00
1.2022440075e+00
1.2023265849e+00
1.2024114053e+00
1.2024978888e+00
1.2025854678e+00
1.2026735914e+00
1.2027617322e+00
1.2028493897e+00
1.2029360959e+00
1.2030214176e+00
1.2031049601e+00
1.2031863685e+00
1.2032653301e+00
1.2033415742e+00
1.2034148727e+00
1.2034850395e+00
1.2035519293e+00
1.2036154363e+00
1.2036754921e+00
1.2037320629e+00
1.2037851477e+00
1.2038347749e+00
1.2038809992e+00
1.2039238988e+00
1.2039635721e+00
1.2040001343e+00
1.2040337150e+00
1.2040644543e+00
1.2040925011e+00
1.2041180094e+00
1.2041411369e+00
1.2041620420e+00
1.2041808823e+00
1.2041978128e+00
1.2042129843e+00
1.2042265425e+00
1.2042386267e+00
1.2042493691e+00
1.2042588944e+00
1.2042673191e+00
1.2042747518e+00
1.2042812926e+00
1.2042870335e+00
1.2042920587e+00
1.2042964444e+00
1.2043002599e+00
1.2043035674e+00
1.2043064226e+00
1.2043088756e+00
1.2043109710e+00
1.2043127484e+00
1.2043142431e+00
1.2043154866e+00
1.2043165068e+00
1.2043173285e+00
1.2043179742e+00
1.2043184638e+00
1.2043188153e+00
1.2043190451e+00
1.2043191679e+00
1.2043191974e+00
1.2043191459e+00
1.2043190250e+00
1.2043188454e+00
1.2043186168e+00
1.2043183485e+00
1.2043180489e+00
1.2043177260e+00
1.2043173872e+00
1.2043170391e+00
1.2043166881e+00
1.2043163399e+00
1.2043159997e+00
1.2043156724e+00
1.2043153622e+00
1.2043150731e+00
1.2043148088e+00
1.2043145725e+00
1.2043143673e+00
1.2043141961e+00
1.2043140616e+00
1.2043139663e+00
1.2043139120e+00
1.2043139003e+00
1.2043139313e+00
1.2043140029e+00
1.2043130988e+00
1.2016431623e+00
1.2016560397e+00
1.2016714799e+00
1.2016944269e+00
1.2017247011e+00
1.2017620539e+00
1.2018061734e+00
1.2018566910e+00
1.2019131878e+00
1.2019752014e+00
1.2020422327e+00
1.2021137525e+00
1.2021892094e+00
1.2022680358e+00
1.2023496561e+00
1.2024334925e+00
1.2025189728e+00
1.2026055355e+00
1.2026926367e+00
1.2027797547e+00
1.2028663955e+00
1.2029520959e+00
1.2030364282e+00
1.2031190020e+00
1.2031994669e+00
1.2032775135e+00
1.2033528745e+00
1.2034253244e+00
1.2034946792e+00
1.2035607955e+00
1.2036235686e+00
1.2036829308e+00
1.2037388491e+00
1.2037913223e+00
1.2038403786e+00
1.2038860721e+00
1.2039284800e+00
1.2039676996e+00
1.2040038451e+00
1.2040370440e+00
1.2040674354e+00
1.2040951659e+00
1.2041203881e+00
1.2041432576e+00
1.2041639308e+00
1.2041825634e+00
1.2041993086e+00
1.2042143152e+00
1.2042277271e+00
1.2042396817e+00
1.2042503096e+00
1.2042597338e+00
1.2042680693e+00
1.2042754232e+00
1.2042818942e+00
1.2042875733e+00
1.2042925432e+00
1.2042968796e+00
1.2043006505e+00
1.2043039174e+00
1.2043067355e+00
1.2043091543e+00
1.2043112178e+00
1.2043129653e+00
1.2043144318e+00
1.2043156486e+00
1.2043166433e+00
1.2043174409e+00
1.2043180635e+00
1.2043185312e+00
1.2043188619e+00
1.2043190720e+00
1.2043191763e+00
1.2043191884e+00
1.2043191207e+00
1.2043189848e+00
1.2043187913e+00
1.2043185501e+00
1.2043182702e+00
1.2043179601e+00
1.2043176277e+00
1.2043172802e+00
1.2043169243e+00
1.2043165661e+00
1.2043162114e+00
1.2043158651e+00
1.2043155321e+00
1.2043152165e+00
1.2043149222e+00
1.2043146527e+00
1.2043144111e+00
1.2043142002e+00
1.2043140227e+00
1.2043138806e+00
1.2043137761e+00
1.2043137103e+00
1.2043136839e+00
1.2043136965e+00
1.2043137460e+00
1.2043127212e+00
1.2016813925e+00
1.2016942520e+00
1.2017095169e+00
1.2017321779e+00
1.2017620539e+00
1.2017988987e+00
1.2018424052e+00
1.2018922112e+00
1.2019479048e+00
1.2020090315e+00
1.2020751001e+00
1.2021455903e+00
1.2022199586e+00
1.2022976467e+00
1.2023780871e+00
1.2024607113e+00
1.2025449548e+00
1.2026302652e+00
1.2027161059e+00
1.2028019634e+00
1.2028873503e+00
1.2029718109e+00
1.2030549231e+00
1.2031363026e+00
1.2032156039e+00
1.2032925223e+00
1.2033667940e+00
1.2034381972e+00
1.2035065504e+00
1.2035717125e+00
1.2036335801e+00
1.2036920868e+00
1.2037471998e+00
1.2037989182e+00
1.2038472697e+00
1.2038923078e+00
1.2039341085e+00
1.2039727679e+00
1.2040083981e+00
1.2040411254e+00
1.2040710864e+00
1.2040984258e+00
1.2041232937e+00
1.2041458435e+00
1.2041662294e+00
1.2041846045e+00
1.2042011197e+00
1.2042159216e+00
1.2042291517e+00
1.2042409454e+00
1.2042514310e+00
1.2042607296e+00
1.2042689545e+00
1.2042762107e+00
1.2042825956e+00
1.2042881986e+00
1.2042931010e+00
1.2042973773e+00
1.2043010944e+00
1.2043043130e+00
1.2043070873e+00
1.2043094661e+00
1.2043114928e+00
1.2043132063e+00
1.2043146412e+00
1.2043158283e+00
1.2043167953e+00
1.2043175666e+00
1.2043181645e+00
1.2043186089e+00
1.2043189176e+00
1.2043191070e+00
1.2043191919e+00
1.2043191859e+00
1.2043191015e+00
1.2043189500e+00
1.2043187422e+00
1.2043184878e+00
1.2043181959e+00
1.2043178750e+00
1.2043175326e+00
1.2043171761e+00
1.2043168120e+00
1.2043164464e+00
1.2043160848e+00
1.2043157322e+00
1.2043153932e+00
1.2043150719e+00
1.2043147720e+00
1.2043144968e+00
1.2043142494e+00
1.2043140323e+00
1.2043138478e+00
1.2043136978e+00
1.2043135839e+00
1.2043135069e+00
1.2043134672e+00
1.2043134641e+00
1.2043134958e+00
1.2043123586e+00
1.2017266821e+00
1.2017394553e+00
1.2017544858e+00
1.2017767857e+00
1.2018061734e+00
1.2018424052e+00
1.2018851789e+00
1.2019341385e+00
1.2019888801e+00
1.2020489573e+00
1.2021138885e+00
1.2021831621e+00
1.2022562455e+00
1.2023325896e+00
1.2024116377e+00
1.2024928307e+00
1.2025756150e+00
1.2026594469e+00
1.2027438002e+00
1.2028281695e+00
1.2029120768e+00
1.2029950735e+00
1.2030767457e+00
1.2031567151e+00
1.2032346428e+00
1.2033102289e+00
1.2033832147e+00
1.2034533819e+00
1.2035205526e+00
1.2035845876e+00
1.2036453860e+00
1.2037028821e+00
1.2037570441e+00
1.2038078709e+00
1.2038553898e+00
1.2038996535e+00
1.2039407368e+00
1.2039787338e+00
1.2040137552e+00
1.2040459246e+00
1.2040753766e+00
1.2041022531e+00
1.2041267019e+00
1.2041488732e+00
1.2041689187e+00
1.2041869887e+00
1.2042032314e+00
1.2042177905e+00
1.2042308050e+00
1.2042424077e+00
1.2042527246e+00
1.2042618744e+00
1.2042699680e+00
1.2042771088e+00
1.2042833920e+00
1.2042889052e+00
1.2042937285e+00
1.2042979345e+00
1.2043015892e+00
1.2043047520e+00
1.2043074761e+00
1.2043098095e+00
1.2043117949e+00
1.2043134706e+00
1.2043148705e+00
1.2043160253e+00
1.2043169621e+00
1.2043177054e+00
1.2043182770e+00
1.2043186967e+00
1.2043189823e+00
1.2043191502e+00
1.2043192149e+00
1.2043191902e+00
1.2043190884e+00
1.2043189209e+00
1.2043186983e+00
1.2043184304e+00
1.2043181262e+00
1.2043177939e+00
1.2043174414e+00
1.2043170755e+00
1.2043167030e+00
1.2043163296e+00
1.2043159608e+00
1.2043156015e+00
1.2043152562e+00
1.2043149288e+00
1.2043146230e+00
1.2043143419e+00
1.2043140883e+00
1.2043138646e+00
1.2043136729e+00
1.2043135150e+00
1.2043133919e+00
1.2043133045e+00
1.2043132528e+00
1.2043132364e+00
1.2043132537e+00
1.2043120116e+00
1.2017786232e+00
1.2017912581e+00
1.2018060037e+00
1.2018278750e+00
1.2018566910e+00
1.2018922112e+00
1.2019341385e+00
1.2019821242e+00
1.2020357723e+00
1.2020946462e+00
1.2021582735e+00
1.2022261544e+00
1.2022977663e+00
1.2023725723e+00
1.2024500266e+00
1.2025295822e+00
1.2026106961e+00
1.2026928365e+00
1.2027754871e+00
1.2028581538e+00
1.2029403673e+00
1.2030216890e+00
1.2031017127e+00
1.2031800685e+00
1.2032564236e+00
1.2033304850e+00
1.2034019987e+00
1.2034707513e+00
1.2035365680e+00
1.2035993131e+00
1.2036588871e+00
1.2037152264e+00
1.2037682993e+00
1.2038181053e+00
1.2038646708e+00
1.2039080476e+00
1.2039483090e+00
1.2039855475e+00
1.2040198712e+00
1.2040514016e+00
1.2040802701e+00
1.2041066161e+00
1.2041305841e+00
1.2041523215e+00
1.2041719765e+00
1.2041896965e+00
1.2042056262e+00
1.2042199067e+00
1.2042326737e+00
1.2042440571e+00
1.2042541802e+00
1.2042631591e+00
1.2042711023e+00
1.2042781107e+00
1.2042842774e+00
1.2042896882e+00
1.2042944212e+00
1.2042985476e+00
1.2043021317e+00
1.2043052316e+00
1.2043078996e+00
1.2043101826e+00
1.2043121224e+00
1.2043137566e+00
1.2043151187e+00
1.2043162386e+00
1.2043171433e+00
1.2043178567e+00
1.2043184006e+00
1.2043187944e+00
1.2043190560e+00
1.2043192014e+00
1.2043192454e+00
1.2043192013e+00
1.2043190816e+00
1.2043188977e+00
1.2043186600e+00
1.2043183782e+00
1.2043180613e+00
1.2043177175e+00
1.2043173544e+00
1.2043169789e+00
1.2043165976e+00
1.2043162162e+00
1.2043158399e+00
1.2043154737e+00
1.2043151218e+00
1.2043147881e+00
1.2043144761e+00
1.2043141887e+00
1.2043139287e+00
1.2043136983e+00
1.2043134994e+00
1.2043133336e+00
1.2043132018e+00
1.2043131048e+00
1.2043130426e+00
1.2043130149e+00
1.2043130205e+00
1.2043116803e+00
1.2018367653e+00
1.2018492206e+00
1.2018636380e+00
1.2018850200e+00
1.2019131878e+00
1.2019479048e+00
1.2019888801e+00
1.2020357723e+00
1.2020881949e+00
1.2021457207e+00
1.2022078893e+00
1.2022742117e+00
1.2023441783e+00
1.2024172640e+00
1.2024929367e+00
1.2025706612e+00
1.2026499080e+00
1.2027301570e+00
1.2028109046e+00
1.2028916673e+00
1.2029719877e+00
1.2030514364e+00
1.2031296175e+00
1.2032061689e+00
1.2032807662e+00
1.2033531226e+00
1.2034229906e+00
1.2034901611e+00
1.2035544642e+00
1.2036157666e+00
1.2036739719e+00
1.2037290172e+00
1.2037808725e+00
1.2038295365e+00
1.2038750358e+00
1.2039174206e+00
1.2039567628e+00
1.2039931525e+00
1.2040266958e+00
1.2040575109e+00
1.2040857266e+00
1.2041114787e+00
1.2041349086e+00
1.2041561600e+00
1.2041753777e+00
1.2041927056e+00
1.2042082849e+00
1.2042222530e+00
1.2042347427e+00
1.2042458804e+00
1.2042557864e+00
1.2042645739e+00
1.2042723486e+00
1.2042792089e+00
1.2042852456e+00
1.2042905420e+00
1.2042951745e+00
1.2042992123e+00
1.2043027183e+00
1.2043057489e+00
1.2043083554e+00
1.2043105832e+00
1.2043124736e+00
1.2043140630e+00
1.2043153845e+00
1.2043164673e+00
1.2043173379e+00
1.2043180199e+00
1.2043185347e+00
1.2043189017e+00
1.2043191384e+00
1.2043192607e+00
1.2043192833e+00
1.2043192194e+00
1.2043190815e+00
1.2043188807e+00
1.2043186275e+00
1.2043183315e+00
1.2043180017e+00
1.2043176461e+00
1.2043172722e+00
1.2043168869e+00
1.2043164965e+00
1.2043161068e+00
1.2043157229e+00
1.2043153495e+00
1.2043149907e+00
1.2043146505e+00
1.2043143320e+00
1.2043140382e+00
1.2043137716e+00
1.2043135345e+00
1.2043133284e+00
1.2043131549e+00
1.2043130150e+00
1.2043129093e+00
1.2043128378e+00
1.2043128005e+00
1.2043127966e+00
1.2043113642e+00
1.2019006188e+00
1.2019128615e+00
1.2019269127e+00
1.2019477514e+00
1.2019752014e+00
1.2020090315e+00
1.2020489573e+00
1.2020946462e+00
1.2021457207e+00
1.2022017656e+00
1.2022623315e+00
1.2023269429e+00
1.2023951028e+00
1.2024663009e+00
1.2025400177e+00
1.2026157332e+00
1.2026929307e+00
1.2027711045e+00
1.2028497634e+00
1.2029284373e+00
1.2030066797e+00
1.2030840735e+00
1.2031602321e+00
1.2032348036e+00
1.2033074716e+00
1.2033779571e+00
1.2034460187e+00
1.2035114534e+00
1.2035740948e+00
1.2036338142e+00
1.2036905169e+00
1.2037441423e+00
1.2037946607e+00
1.2038420716e+00
1.2038864002e+00
1.2039276961e+00
1.2039660290e+00
1.2040014871e+00
1.2040341732e+00
1.2040642030e+00
1.2040917016e+00
1.2041168016e+00
1.2041396402e+00
1.2041603578e+00
1.2041790950e+00
1.2041959919e+00
1.2042111860e+00
1.2042248110e+00
1.2042369957e+00
1.2042478634e+00
1.2042575308e+00
1.2042661079e+00
1.2042736976e+00
1.2042803953e+00
1.2042862893e+00
1.2042914605e+00
1.2042959831e+00
1.2042999243e+00
1.2043033451e+00
1.2043063006e+00
1.2043088404e+00
1.2043110090e+00
1.2043128463e+00
1.2043143881e+00
1.2043156665e+00
1.2043167101e+00
1.2043175450e+00
1.2043181942e+00
1.2043186790e+00
1.2043190182e+00
1.2043192292e+00
1.2043193279e+00
1.2043193286e+00
1.2043192445e+00
1.2043190879e+00
1.2043188700e+00
1.2043186012e+00
1.2043182908e+00
1.2043179478e+00
1.2043175801e+00
1.2043171953e+00
1.2043168000e+00
1.2043164004e+00
1.2043160021e+00
1.2043156103e+00
1.2043152295e+00
1.2043148638e+00
1.2043145167e+00
1.2043141917e+00
1.2043138913e+00
1.2043136181e+00
1.2043133742e+00
1.2043131611e+00
1.2043129803e+00
1.2043128327e+00
1.2043127189e+00
1.2043126393e+00
1.2043125937e+00
1.2043125818e+00
1.2043110625e+00
1.2019696606e+00
1.2019816635e+00
1.2019953156e+00
1.2020155625e+00
1.2020422327e+00
1.2020751001e+00
1.2021138885e+00
1.2021582735e+00
1.2022078893e+00
1.2022623315e+00
1.2023211643e+00
1.2023839253e+00
1.2024501326e+00
1.2025192896e+00
1.2025908929e+00
1.2026644365e+00
1.2027394197e+00
1.2028153503e+00
1.2028917523e+00
1.2029681682e+00
1.2030441655e+00
1.2031193380e+00
1.2031933113e+00
1.2032657428e+00
1.2033363259e+00
1.2034047892e+00
1.2034708988e+00
1.2035344569e+00
1.2035953029e+00
1.2036533109e+00
1.2037083898e+00
1.2037604802e+00
1.2038095538e+00
1.2038556098e+00
1.2038986732e+00
1.2039387918e+00
1.2039760337e+00
1.2040104842e+00
1.2040422438e+00
1.2040714243e+00
1.2040981475e+00
1.2041225421e+00
1.2041447414e+00
1.2041648814e+00
1.2041830989e+00
1.2041995295e+00
1.2042143068e+00
1.2042275604e+00
1.2042394152e+00
1.2042499906e+00
1.2042593999e+00
1.2042677495e+00
1.2042751391e+00
1.2042816611e+00
1.2042874010e+00
1.2042924371e+00
1.2042968412e+00
1.2043006785e+00
1.2043040080e+00
1.2043068831e+00
1.2043093518e+00
1.2043114573e+00
1.2043132385e+00
1.2043147300e+00
1.2043159631e+00
1.2043169658e+00
1.2043177635e+00
1.2043183789e+00
1.2043188326e+00
1.2043191433e+00
1.2043193281e+00
1.2043194027e+00
1.2043193811e+00
1.2043192766e+00
1.2043191012e+00
1.2043188660e+00
1.2043185812e+00
1.2043182563e+00
1.2043179000e+00
1.2043175202e+00
1.2043171242e+00
1.2043167187e+00
1.2043163098e+00
1.2043159029e+00
1.2043155030e+00
1.2043151146e+00
1.2043147417e+00
1.2043143878e+00
1.2043140559e+00
1.2043137489e+00
1.2043134691e+00
1.2043132184e+00
1.2043129984e+00
1.2043128106e+00
1.2043126557e+00
1.2043125346e+00
1.2043124476e+00
1.2043123948e+00
1.2043123761e+00
1.2043107743e+00
1.2020433395e+00
1.2020550803e+00
1.2020683044e+00
1.2020879175e+00
1.2021137525e+00
1.2021455903e+00
1.2021831621e+00
1.2022261544e+00
1.2022742117e+00
1.2023269429e+00
1.2023839253e+00
1.2024447118e+00
1.2025088347e+00
1.2025758143e+00
1.2026451621e+00
1.2027163890e+00
1.2027890092e+00
1.2028625472e+00
1.2029365409e+00
1.2030105485e+00
1.2030841501e+00
1.2031569534e+00
1.2032285947e+00
1.2032987436e+00
1.2033671021e+00
1.2034334083e+00
1.2034974349e+00
1.2035589914e+00
1.2036179214e+00
1.2036741038e+00
1.2037274498e+00
1.2037779027e+00
1.2038254345e+00
1.2038700450e+00
1.2039117581e+00
1.2039506206e+00
1.2039866981e+00
1.2040200736e+00
1.2040508441e+00
1.2040791183e+00
1.2041050139e+00
1.2041286555e+00
1.2041501722e+00
1.2041696957e+00
1.2041873581e+00
1.2042032910e+00
1.2042176232e+00
1.2042304802e+00
1.2042419827e+00
1.2042522461e+00
1.2042613797e+00
1.2042694865e+00
1.2042766625e+00
1.2042829971e+00
1.2042885727e+00
1.2042934649e+00
1.2042977431e+00
1.2043014699e+00
1.2043047026e+00
1.2043074926e+00
1.2043098863e+00
1.2043119255e+00
1.2043136477e+00
1.2043150867e+00
1.2043162727e+00
1.2043172331e+00
1.2043179924e+00
1.2043185729e+00
1.2043189949e+00
1.2043192765e+00
1.2043194347e+00
1.2043194847e+00