# vtk DataFile Version 2.0
Blank
ASCII
DATASET STRUCTURED_GRID
DIMENSIONS 101 101 2
POINTS 20402 float
0.0000000000e+00 0.0000000000e+00 0.0000000000e+00
1.0000000000e-02 0.0000000000e+00 0.0000000000e+00
2.0000000000e-02 0.0000000000e+00 0.0000000000e+00
3.0000000000e-02 0.0000000000e+00 0.0000000000e+00
4.0000000000e-02 0.0000000000e+00 0.0000000000e+00
5.0000000000e-02 0.0000000000e+00 0.0000000000e+00
6.0000000000e-02 0.0000000000e+00 0.0000000000e+00
7.0000000000e-02 0.0000000000e+00 0.0000000000e+00
8.0000000000e-02 0.0000000000e+00 0.0000000000e+00
9.0000000000e-02 0.0000000000e+00 0.0000000000e+00
1.0000000000e-01 0.0000000000e+00 0.0000000000e+00
1.1000000000e-01 0.0000000000e+00 0.0000000000e+00
1.2000000000e-01 0.0000000000e+00 0.0000000000e+00
1.3000000000e-01 0.0000000000e+00 0.0000000000e+00
1.4000000000e-01 0.0000000000e+00 0.0000000000e+00
1.5000000000e-01 0.0000000000e+00 0.0000000000e+00
1.6000000000e-01 0.0000000000e+00 0.0000000000e+00
1.7000000000e-01 0.0000000000e+00 0.0000000000e+00
1.8000000000e-01 0.0000000000e+00 0.0000000000e+00
1.9000000000e-01 0.0000000000e+00 0.0000000000e+00
2.0000000000e-01 0.0000000000e+00 0.0000000000e+00
2.1000000000e-01 0.0000000000e+00 0.0000000000e+00
2.2000000000e-01 0.0000000000e+00 0.0000000000e+00
2.3000000000e-01 0.0000000000e+00 0.0000000000e+00
2.4000000000e-01 0.0000000000e+00 0.0000000000e+00
2.5000000000e-01 0.0000000000e+00 0.0000000000e+00
2.6000000000e-01 0.0000000000e+00 0.0000000000e+00
2.7000000000e-01 0.0000000000e+00 0.0000000000e+00
2.8000000000e-01 0.0000000000e+00 0.0000000000e+00
2.9000000000e-01 0.0000000000e+00 0.0000000000e+00
3.0000000000e-01 0.0000000000e+00 0.0000000000e+00
3.1000000000e-01 0.0000000000e+00 0.0000000000e+00
3.2000000000e-01 0.0000000000e+00 0.0000000000e+00
3.3000000000e-01 0.0000000000e+00 0.0000000000e+00
3.4000000000e-01 0.0000000000e+00 0.0000000000e+00
3.5000000000e-01 0.0000000000e+00 0.0000000000e+00
3.6000000000e-01 0.0000000000e+00 0.0000000000e+00
3.7000000000e-01 0.0000000000e+00 0.0000000000e+00
3.8000000000e-01 0.0000000000e+00 0.0000000000e+00
3.9000000000e-01 0.0000000000e+00 0.0000000000e+00
4.0000000000e-01 0.0000000000e+00 0.0000000000e+00
4.1000000000e-01 0.0000000000e+00 0.0000000000e+00
4.2000000000e-01 0.0000000000e+00 0.0000000000e+00
4.3000000000e-01 0.0000000000e+00 0.0000000000e+00
4.4000000000e-01 0.0000000000e+00 0.0000000000e+00
4.5000000000e-01 0.0000000000e+00 0.0000000000e+00
4.6000000000e-01 0.0000000000e+00 0.0000000000e+00
4.7000000000e-01 0.0000000000e+00 0.0000000000e+00
4.8000000000e-01 0.0000000000e+00 0.0000000000e+00
4.9000000000e-01 0.0000000000e+00 0.0000000000e+00
5.0000000000e-01 0.0000000000e+00 0.0000000000e+00
5.1000000000e-01 0.0000000000e+00 0.0000000000e+00
5.2000000000e-01 0.0000000000e+00 0.0000000000e+00
5.3000000000e-01 0.0000000000e+00 0.0000000000e+00
5.4000000000e-01 0.0000000000e+00 0.0000000000e+00
5.5000000000e-01 0.0000000000e+00 0.0000000000e+00
5.6000000000e-01 0.0000000000e+00 0.0000000000e+00
5.7000000000e-01 0.0000000000e+00 0.0000000000e+00
5.8000000000e-01 0.0000000000e+00 0.0000000000e+00
5.9000000000e-01 0.0000000000e+00 0.0000000000e+00
6.0000000000e-01 0.0000000000e+00 0.0000000000e+00
6.1000000000e-01 0.0000000000e+00 0.0000000000e+00
6.2000000000e-01 0.0000000000e+00 0.0000000000e+00
6.3000000000e-01 0.0000000000e+00 0.0000000000e+00
6.4000000000e-01 0.0000000000e+00 0.0000000000e+00
6.5000000000e-01 0.0000000000e+00 0.0000000000e+00
6.6000000000e-01 0.0000000000e+00 0.0000000000e+00
6.7000000000e-01 0.0000000000e+00 0.0000000000e+00
6.8000000000e-01 0.0000000000e+00 0.0000000000e+00
6.9000000000e-01 0.0000000000e+00 0.0000000000e+00
7.0000000000e-01 0.0000000000e+00 0.0000000000e+00
7.1000000000e-01 0.0000000000e+00 0.0000000000e+00
7.2000000000e-01 0.0000000000e+00 0.0000000000e+00
7.3000000000e-01 0.0000000000e+00 0.0000000000e+00
7.4000000000e-01 0.0000000000e+00 0.0000000000e+00
7.5000000000e-01 0.0000000000e+00 0.0000000000e+00
7.6000000000e-01 0.0000000000e+00 0.0000000000e+00
7.7000000000e-01 0.0000000000e+00 0.0000000000e+00
7.8000000000e-01 0.0000000000e+00 0.0000000000e+00
7.9000000000e-01 0.0000000000e+00 0.0000000000e+00
8.0000000000e-01 0.0000000000e+00 0.0000000000e+00
8.1000000000e-01 0.0000000000e+00 0.0000000000e+00
8.2000000000e-01 0.0000000000e+00 0.0000000000e+00
8.3000000000e-01 0.0000000000e+00 0.0000000000e+00
8.4000000000e-01 0.0000000000e+00 0.0000000000e+00
8.5000000000e-01 0.0000000000e+00 0.0000000000e+00
8.6000000000e-01 0.0000000000e+00 0.0000000000e+00
8.7000000000e-01 0.0000000000e+00 0.0000000000e+00
8.8000000000e-01 0.0000000000e+00 0.0000000000e+00
8.9000000000e-01 0.0000000000e+00 0.0000000000e+00
9.0000000000e-01 0.0000000000e+00 0.0000000000e+00
9.1000000000e-01 0.0000000000e+00 0.0000000000e+00
9.2000000000e-01 0.0000000000e+00 0.0000000000e+00
9.3000000000e-01 0.0000000000e+00 0.0000000000e+00
9.4000000000e-01 0.0000000000e+00 0.0000000000e+00
9.5000000000e-01 0.0000000000e+00 0.0000000000e+00
9.6000000000e-01 0.0000000000e+00 0.0000000000e+00
9.7000000000e-01 0.0000000000e+00 0.0000000000e+00
9.8000000000e-01 0.0000000000e+00 0.0000000000e+00
9.9000000000e-01 0.0000000000e+00 0.0000000000e+00
1.0000000000e+00 0.0000000000e+00 0.0000000000e+00
0.0000000000e+00 1.0000000000e-02 0.0000000000e+00
1.0000000000e-02 1.0000000000e-02 0.0000000000e+00
2.0000000000e-02 1.0000000000e-02 0.0000000000e+00
3.0000000000e-02 1.0000000000e-02 0.0000000000e+00
4.0000000000e-02 1.0000000000e-02 0.0000000000e+00
5.0000000000e-02 1.0000000000e-02 0.0000000000e+00
6.0000000000e-02 1.0000000000e-02 0.0000000000e+00
7.0000000000e-02 1.0000000000e-02 0.0000000000e+00
8.0000000000e-02 1.0000000000e-02 0.0000000000e+00
9.0000000000e-02 1.0000000000e-02 0.0000000000e+00
1.0000000000e-01 1.0000000000e-02 0.0000000000e+00
1.1000000000e-01 1.0000000000e-02 0.0000000000e+00
1.2000000000e-01 1.0000000000e-02 0.0000000000e+00
1.3000000000e-01 1.0000000000e-02 0.0000000000e+00
1.4000000000e-01 1.0000000000e-02 0.0000000000e+00
1.5000000000e-01 1.0000000000e-02 0.0000000000e+00
1.6000000000e-01 1.0000000000e-02 0.0000000000e+00
1.7000000000e-01 1.0000000000e-02 0.0000000000e+00
1.8000000000e-01 1.0000000000e-02 0.0000000000e+00
1.9000000000e-01 1.0000000000e-02 0.0000000000e+00
2.0000000000e-01 1.0000000000e-02 0.0000000000e+00
2.1000000000e-01 1.0000000000e-02 0.0000000000e+00
2.2000000000e-01 1.0000000000e-02 0.0000000000e+00
2.3000000000e-01 1.0000000000e-02 0.0000000000e+00
2.4000000000e-01 1.0000000000e-02 0.0000000000e+00
2.5000000000e-01 1.0000000000e-02 0.0000000000e+00
2.6000000000e-01 1.0000000000e-02 0.0000000000e+00
2.7000000000e-01 1.0000000000e-02 0.0000000000e+00
2.8000000000e-01 1.0000000000e-02 0.0000000000e+00
2.9000000000e-01 1.0000000000e-02 0.0000000000e+00
3.0000000000e-01 1.0000000000e-02 0.0000000000e+00
3.1000000000e-01 1.0000000000e-02 0.0000000000e+00
3.2000000000e-01 1.0000000000e-02 0.0000000000e+00
3.3000000000e-01 1.0000000000e-02 0.0000000000e+00
3.4000000000e-01 1.0000000000e-02 0.0000000000e+00
3.5000000000e-01 1.0000000000e-02 0.0000000000e+00
3.6000000000e-01 1.0000000000e-02 0.0000000000e+00
3.7000000000e-01 1.0000000000e-02 0.0000000000e+00
3.8000000000e-01 1.0000000000e-02 0.0000000000e+00
3.9000000000e-01 1.0000000000e-02 0.0000000000e+00
4.0000000000e-01 1.0000000000e-02 0.0000000000e+00
4.1000000000e-01 1.0000000000e-02 0.0000000000e+00
4.2000000000e-01 1.0000000000e-02 0.0000000000e+00
4.3000000000e-01 1.0000000000e-02 0.0000000000e+00
4.4000000000e-01 1.0000000000e-02 0.0000000000e+00
4.5000000000e-01 1.0000000000e-02 0.0000000000e+00
4.6000000000e-01 1.0000000000e-02 0.0000000000e+00
4.7000000000e-01 1.0000000000e-02 0.0000000000e+00
4.8000000000e-01 1.0000000000e-02 0.0000000000e+00
4.9000000000e-01 1.0000000000e-02 0.0000000000e+00
5.0000000000e-01 1.0000000000e-02 0.0000000000e+00
5.1000000000e-01 1.0000000000e-02 0.0000000000e+00
5.2000000000e-01 1.0000000000e-02 0.0000000000e+00
5.3000000000e-01 1.0000000000e-02 0.0000000000e+00
5.4000000000e-01 1.0000000000e-02 0.0000000000e+00
5.5000000000e-01 1.0000000000e-02 0.0000000000e+00
5.6000000000e-01 1.0000000000e-02 0.0000000000e+00
5.7000000000e-01 1.0000000000e-02 0.0000000000e+00
5.8000000000e-01 1.0000000000e-02 0.0000000000e+00
5.9000000000e-01 1.0000000000e-02 0.0000000000e+00
6.0000000000e-01 1.0000000000e-02 0.0000000000e+00
6.1000000000e-01 1.0000000000e-02 0.0000000000e+00
6.2000000000e-01 1.0000000000e-02 0.0000000000e+00
6.3000000000e-01 1.0000000000e-02 0.0000000000e+00
6.4000000000e-01 1.0000000000e-02 0.0000000000e+00
6.5000000000e-01 1.0000000000e-02 0.0000000000e+00
6.6000000000e-01 1.0000000000e-02 0.0000000000e+00
6.7000000000e-01 1.0000000000e-02 0.0000000000e+00
6.8000000000e-01 1.0000000000e-02 0.0000000000e+00
6.9000000000e-01 1.0000000000e-02 0.0000000000e+00
7.0000000000e-01 1.0000000000e-02 0.0000000000e+00
7.1000000000e-01 1.0000000000e-02 0.0000000000e+00
7.2000000000e-01 1.0000000000e-02 0.0000000000e+00
7.3000000000e-01 1.0000000000e-02 0.0000000000e+00
7.4000000000e-01 1.0000000000e-02 0.0000000000e+00
7.5000000000e-01 1.0000000000e-02 0.0000000000e+00
7.6000000000e-01 1.0000000000e-02 0.0000000000e+00
7.7000000000e-01 1.0000000000e-02 0.0000000000e+00
7.8000000000e-01 1.0000000000e-02 0.0000000000e+00
7.9000000000e-01 1.0000000000e-02 0.0000000000e+00
8.0000000000e-01 1.0000000000e-02 0.0000000000e+00
8.1000000000e-01 1.0000000000e-02 0.0000000000e+00
8.2000000000e-01 1.0000000000e-02 0.0000000000e+00
8.3000000000e-01 1.0000000000e-02 0.0000000000e+00
8.4000000000e-01 1.0000000000e-02 0.0000000000e+00
8.5000000000e-01 1.0000000000e-02 0.0000000000e+00
8.6000000000e-01 1.0000000000e-02 0.0000000000e+00
8.7000000000e-01 1.0000000000e-02 0.0000000000e+00
8.8000000000e-01 1.0000000000e-02 0.0000000000e+00
8.9000000000e-01 1.0000000000e-02 0.0000000000e+00
9.0000000000e-01 1.0000000000e-02 0.0000000000e+00
9.1000000000e-01 1.0000000000e-02 0.0000000000e+00
9.2000000000e-01 1.0000000000e-02 0.0000000000e+00
[...]
CELL_DATA 10000

SCALARS massDensity float
LOOKUP_TABLE default
1.1930454130e+00
1.1932145302e+00
1.1934585855e+00
1.1938206927e+00
1.1942878427e+00
1.1948440834e+00
1.1954714338e+00
1.1961507047e+00
1.1968624620e+00
1.1975878159e+00
1.1983092538e+00
1.1990112025e+00
1.1996805545e+00
1.2003068866e+00
1.2008826202e+00
1.2014029009e+00
1.2018654485e+00
1.2022701998e+00
1.2026189752e+00
1.2029150255e+00
1.2031626572e+00
1.2033668086e+00
1.2035327390e+00
1.2036657128e+00
1.2037708027e+00
1.2038527043e+00
1.2039156548e+00
1.2039633595e+00
1.2039989972e+00
1.2040252215e+00
1.2040442153e+00
1.2040577283e+00
1.2040671490e+00
1.2040735511e+00
1.2040777608e+00
1.2040803979e+00
1.2040819287e+00
1.2040826960e+00
1.2040829561e+00
1.2040828984e+00
1.2040826687e+00
1.2040823810e+00
1.2040821313e+00
1.2040820046e+00
1.2040820820e+00
1.2040824462e+00
1.2040831837e+00
1.2040843901e+00
1.2040861698e+00
1.2040886418e+00
1.2040919368e+00
1.2040962047e+00
1.2041016097e+00
1.2041083385e+00
1.2041165940e+00
1.2041266044e+00
1.2041386143e+00
1.2041528941e+00
1.2041697283e+00
1.2041894235e+00
1.2042122923e+00
1.2042386575e+00
1.2042688286e+00
1.2043030995e+00
1.2043417135e+00
1.2043848511e+00
1.2044325804e+00
1.2044848347e+00
1.2045413516e+00
1.2046016467e+00
1.2046649539e+00
1.2047302149e+00
1.2047960449e+00
1.2048607666e+00
1.2049224292e+00
1.2049789115e+00
1.2050280076e+00
1.2050675984e+00
1.2050957818e+00
1.2051110714e+00
1.2051125106e+00
1.2050998251e+00
1.2050734447e+00
1.2050345427e+00
1.2049849215e+00
1.2049269221e+00
1.2048631965e+00
1.2047965421e+00
1.2047296467e+00
1.2046649406e+00
1.2046044128e+00
1.2045495559e+00
1.2045013058e+00
1.2044600945e+00
1.2044258978e+00
1.2043983534e+00
1.2043768567e+00
1.2043606819e+00
1.2043490665e+00
1.2043454667e+00
1.1932145302e+00
1.1933918835e+00
1.1936379916e+00
1.1939989999e+00
1.1944626729e+00
1.1950137137e+00
1.1956345743e+00
1.1963064953e+00
1.1970103163e+00
1.1977274672e+00
1.1984406225e+00
1.1991344499e+00
1.1997959609e+00
1.2004149003e+00
1.2009837466e+00
1.2014977449e+00
1.2019546194e+00
1.2023543483e+00
1.2026987171e+00
1.2029909760e+00
1.2032353723e+00
1.2034368185e+00
1.2036005053e+00
1.2037316604e+00
1.2038352897e+00
1.2039160520e+00
1.2039781259e+00
1.2040251856e+00
1.2040603628e+00
1.2040862877e+00
1.2041051069e+00
1.2041185542e+00
1.2041279909e+00
1.2041344797e+00
1.2041388265e+00
1.2041416430e+00
1.2041433791e+00
1.2041443698e+00
1.2041448573e+00
1.2041450214e+00
1.2041449934e+00
1.2041448748e+00
1.2041447450e+00
1.2041446717e+00
1.2041447157e+00
1.2041449357e+00
1.2041453924e+00
1.2041461496e+00
1.2041472783e+00
1.2041488556e+00
1.2041509697e+00
1.2041537163e+00
1.2041572059e+00
1.2041615572e+00
1.2041669063e+00
1.2041733979e+00
1.2041811958e+00
1.2041904723e+00
1.2042014188e+00
1.2042142332e+00
1.2042291307e+00
1.2042463273e+00
1.2042660501e+00
1.2042885153e+00
1.2043139343e+00
1.2043424838e+00
1.2043743049e+00
1.2044094612e+00
1.2044479290e+00
1.2044895433e+00
1.2045339832e+00
1.2045807142e+00
1.2046289827e+00
1.2046777752e+00
1.2047258463e+00
1.2047717195e+00
1.2048137738e+00
1.2048502996e+00
1.2048796463e+00
1.2049003175e+00
1.2049111469e+00
1.2049113792e+00
1.2049008124e+00
1.2048797983e+00
1.2048492919e+00
1.2048107348e+00
1.2047659976e+00
1.2047171707e+00
1.2046664475e+00
1.2046158993e+00
1.2045673786e+00
1.2045223609e+00
1.2044819279e+00
1.2044467155e+00
1.2044169800e+00
1.2043926354e+00
1.2043733626e+00
1.2043586831e+00
1.2043480621e+00
1.2043457351e+00
1.1934585855e+00
1.1936379916e+00
1.1938804287e+00
1.1942344074e+00
1.1946882433e+00
1.1952270994e+00
1.1958340034e+00
1.1964906313e+00
1.1971783726e+00
1.1978790415e+00
1.1985757918e+00
1.1992535888e+00
1.1998998101e+00
1.2005043844e+00
1.2010600214e+00
1.2015620322e+00
1.2020082434e+00
1.2023985994e+00
1.2027348859e+00
1.2030202513e+00
1.2032588780e+00
1.2034555437e+00
1.2036153447e+00
1.2037433702e+00
1.2038445295e+00
1.2039233581e+00
1.2039839525e+00
1.2040298882e+00
1.2040642353e+00
1.2040895512e+00
1.2041079412e+00
1.2041210888e+00
1.2041303304e+00
1.2041366958e+00
1.2041409773e+00
1.2041437658e+00
1.2041455047e+00
1.2041465161e+00
1.2041470391e+00
1.2041472457e+00
1.2041472653e+00
1.2041471943e+00
1.2041471100e+00
1.2041470765e+00
1.2041471516e+00
1.2041473908e+00
1.2041478501e+00
1.2041485901e+00
1.2041496749e+00
1.2041511776e+00
1.2041531769e+00
1.2041557634e+00
1.2041590344e+00
1.2041631017e+00
1.2041680840e+00
1.2041741164e+00
1.2041813408e+00
1.2041899161e+00
1.2042000075e+00
1.2042117971e+00
1.2042254710e+00
1.2042412315e+00
1.2042592810e+00
1.2042798332e+00
1.2043030932e+00
1.2043292641e+00
1.2043585184e+00
1.2043909957e+00
1.2044267604e+00
1.2044657870e+00
1.2045079024e+00
1.2045527638e+00
1.2045997974e+00
1.2046481859e+00
1.2046968294e+00
1.2047443748e+00
1.2047892290e+00
1.2048296571e+00
1.2048638608e+00
1.2048901439e+00
1.2049070286e+00
1.2049134409e+00
1.2049087972e+00
1.2048931354e+00
1.2048670954e+00
1.2048319391e+00
1.2047893971e+00
1.2047415798e+00
1.2046907371e+00
1.2046391293e+00
1.2045887955e+00
1.2045414718e+00
1.2044984520e+00
1.2044606011e+00
1.2044283324e+00
1.2044017024e+00
1.2043804683e+00
1.2043642119e+00
1.2043524213e+00
1.2043500526e+00
1.1938206927e+00
1.1939989999e+00
1.1942344074e+00
1.1945772387e+00
1.1950161865e+00
1.1955370520e+00
1.1961234245e+00
1.1967577312e+00
1.1974219471e+00
1.1980986142e+00
1.1987713973e+00
1.1994258673e+00
1.2000497690e+00
1.2006334550e+00
1.2011698285e+00
1.2016544280e+00
1.2020851088e+00
1.2024618717e+00
1.2027864049e+00
1.2030617917e+00
1.2032920420e+00
1.2034818019e+00
1.2036359693e+00
1.2037594822e+00
1.2038570620e+00
1.2039331055e+00
1.2039915519e+00
1.2040358663e+00
1.2040689993e+00
1.2040934298e+00
1.2041111790e+00
1.2041238798e+00
1.2041328130e+00
1.2041389788e+00
1.2041431345e+00
1.2041458554e+00
1.2041475635e+00
1.2041485735e+00
1.2041491116e+00
1.2041493461e+00
1.2041493988e+00
1.2041493639e+00
1.2041493137e+00
1.2041493098e+00
1.2041494062e+00
1.2041496552e+00
1.2041501094e+00
1.2041508241e+00
1.2041518600e+00
1.2041532826e+00
1.2041551663e+00
1.2041575913e+00
1.2041606492e+00
1.2041644378e+00
1.2041690680e+00
1.2041746565e+00
1.2041813343e+00
1.2041892376e+00
1.2041985173e+00
1.2042093290e+00
1.2042218439e+00
1.2042362379e+00
1.2042527040e+00
1.2042714399e+00
1.2042926598e+00
1.2043165774e+00
1.2043434123e+00
1.2043733613e+00
1.2044065916e+00
1.2044431934e+00
1.2044831548e+00
1.2045262962e+00
1.2045722345e+00
1.2046203160e+00
1.2046695984e+00
1.2047188175e+00
1.2047664258e+00
1.2048106302e+00
1.2048495151e+00
1.2048811555e+00
1.2049038094e+00
1.2049160578e+00
1.2049169993e+00
1.2049063284e+00
1.2048844442e+00
1.2048523903e+00
1.2048118304e+00
1.2047648438e+00
1.2047138000e+00
1.2046610876e+00
1.2046089805e+00
1.2045594128e+00
1.2045139242e+00
1.2044735545e+00
1.2044388962e+00
1.2044101077e+00
1.2043870364e+00
1.2043692960e+00
1.2043563983e+00
1.2043539476e+00
1.1942878427e+00
1.1944626729e+00
1.1946882433e+00
1.1950161865e+00
1.1954357496e+00
1.1959333089e+00
1.1964933072e+00
1.1970988994e+00
1.1977329944e+00
1.1983788475e+00
1.1990209739e+00
1.1996455210e+00
1.2002408886e+00
1.2007977973e+00
1.2013095574e+00
1.2017718521e+00
1.2021827039e+00
1.2025420672e+00
1.2028516079e+00
1.2031142326e+00
1.2033338097e+00
1.2035147447e+00
1.2036617422e+00
1.2037794919e+00
1.2038725210e+00
1.2039450066e+00
1.2040007235e+00
1.2040429627e+00
1.2040745511e+00
1.2040978413e+00
1.2041147706e+00
1.2041268864e+00
1.2041354176e+00
1.2041413102e+00
1.2041452921e+00
1.2041479053e+00
1.2041495570e+00
1.2041505421e+00
1.2041510797e+00
1.2041513266e+00
1.2041514013e+00
1.2041513905e+00
1.2041513646e+00
1.2041513803e+00
1.2041514891e+00
1.2041517394e+00
1.2041521802e+00
1.2041528631e+00
1.2041538433e+00
1.2041551823e+00
1.2041569464e+00
1.2041592110e+00
1.2041620565e+00
1.2041655741e+00
1.2041698598e+00
1.2041750212e+00
1.2041811702e+00
1.2041884306e+00
1.2041969301e+00
1.2042068095e+00
1.2042182148e+00
1.2042313089e+00
1.2042462639e+00
1.2042632759e+00
1.2042825557e+00
1.2043043428e+00
1.2043288891e+00
1.2043564633e+00
1.2043873174e+00
1.2044216702e+00
1.2044596487e+00
1.2045012456e+00
1.2045462414e+00
1.2045941527e+00
1.2046441636e+00
1.2046951059e+00
1.2047454466e+00
1.2047933493e+00
1.2048367528e+00
1.2048735336e+00
1.2049016618e+00
1.2049194239e+00
1.2049255778e+00
1.2049195434e+00
1.2049014490e+00
1.2048721978e+00
1.2048333429e+00
1.2047870078e+00
1.2047356223e+00
1.2046817667e+00
1.2046278813e+00
1.2045761455e+00
1.2045282784e+00
1.2044855274e+00
1.2044486093e+00
1.2044178065e+00
1.2043930174e+00
1.2043739009e+00
1.2043599673e+00
1.2043574044e+00
1.1948440834e+00
1.1950137137e+00
1.1952270994e+00
1.1955370520e+00
1.1959333089e+00
1.1964030897e+00
1.1969316223e+00
1.1975031234e+00
1.1981013726e+00
1.1987106889e+00
1.1993163692e+00
1.1999054566e+00
1.2004669222e+00
1.2009921122e+00
1.2014746442e+00
1.2019105305e+00
1.2022978486e+00
1.2026366229e+00
1.2029283804e+00
1.2031759143e+00
1.2033828388e+00
1.2035533470e+00
1.2036918491e+00
1.2038027953e+00
1.2038904334e+00
1.2039587223e+00
1.2040112040e+00
1.2040509961e+00
1.2040807498e+00
1.2041026939e+00
1.2041186433e+00
1.2041300651e+00
1.2041381085e+00
1.2041436715e+00
1.2041474332e+00
1.2041499095e+00
1.2041514784e+00
1.2041524220e+00
1.2041529425e+00
1.2041531907e+00
1.2041532748e+00
1.2041532791e+00
1.2041532673e+00
1.2041532940e+00
1.2041534064e+00
1.2041536500e+00
1.2041540700e+00
1.2041547140e+00
1.2041556332e+00
1.2041568831e+00
1.2041585257e+00
1.2041606275e+00
1.2041632633e+00
1.2041665125e+00
1.2041704631e+00
1.2041752072e+00
1.2041808460e+00
1.2041874833e+00
1.2041952334e+00
1.2042042139e+00
1.2042145567e+00
1.2042264024e+00
1.2042399151e+00
1.2042552789e+00
1.2042727153e+00
1.2042924780e+00
1.2043148659e+00
1.2043402059e+00
1.2043688482e+00
1.2044011232e+00
1.2044373059e+00
1.2044775404e+00
1.2045217746e+00
1.2045696696e+00
1.2046205361e+00
1.2046732736e+00
1.2047263660e+00
1.2047779063e+00
1.2048257017e+00
1.2048674078e+00
1.2049007404e+00
1.2049236729e+00
1.2049346797e+00
1.2049328839e+00
1.2049182189e+00
1.2048914129e+00
1.2048539912e+00
1.2048080683e+00
1.2047562114e+00
1.2047011228e+00
1.2046454718e+00
1.2045916075e+00
1.2045414743e+00
1.2044964582e+00
1.2044574321e+00
1.2044247491e+00
1.2043983800e+00
1.2043779942e+00
1.2043631137e+00
1.2043604141e+00
1.1954714338e+00
1.1956345743e+00
1.1958340034e+00
1.1961234245e+00
1.1964933072e+00
1.1969316223e+00
1.1974246885e+00
1.1979576789e+00
1.1985155846e+00
1.1990836766e+00
1.1996483651e+00
1.2001974704e+00
1.2007208217e+00
1.2012102659e+00
1.2016599508e+00
1.2020660900e+00
1.2024269717e+00
1.2027425650e+00
1.2030143561e+00
1.2032449072e+00
1.2034376343e+00
1.2035964136e+00
1.2037253895e+00
1.2038286847e+00
1.2039102823e+00
1.2039738516e+00
1.2040227108e+00
1.2040597487e+00
1.2040874485e+00
1.2041078738e+00
1.2041227251e+00
1.2041333587e+00
1.2041408527e+00
1.2041460353e+00
1.2041495450e+00
1.2041518557e+00
1.2041533245e+00
1.2041542090e+00
1.2041547013e+00
1.2041549381e+00
1.2041550233e+00
1.2041550323e+00
1.2041550268e+00
1.2041550557e+00
1.2041551640e+00
1.2041553931e+00
1.2041557851e+00
1.2041563837e+00
1.2041572357e+00
1.2041583925e+00
1.2041599092e+00
1.2041618475e+00
1.2041642728e+00
1.2041672575e+00
1.2041708772e+00
1.2041752147e+00
1.2041803543e+00
1.2041863882e+00
1.2041934099e+00
1.2042015233e+00
1.2042108383e+00
1.2042214842e+00
1.2042336087e+00
1.2042473965e+00
1.2042630710e+00
1.2042809137e+00
1.2043012605e+00
1.2043245099e+00
1.2043510980e+00
1.2043814772e+00
1.2044160546e+00
1.2044551295e+00
1.2044987971e+00
1.2045468596e+00
1.2045987301e+00
1.2046533693e+00
1.2047092529e+00
1.2047644026e+00
1.2048164723e+00
1.2048629126e+00
1.2049011690e+00
1.2049289425e+00
1.2049444089e+00
1.2049464614e+00
1.2049348137e+00
1.2049101032e+00
1.2048737833e+00
1.2048280468e+00
1.2047755326e+00
1.2047191424e+00
1.2046616942e+00
1.2046057675e+00
1.2045534507e+00
1.2045063125e+00
1.2044653132e+00
1.2044309071e+00
1.2044030887e+00
1.2043815580e+00
1.2043658201e+00
1.2043629716e+00
1.1961507047e+00
1.1963064953e+00
1.1964906313e+00
1.1967577312e+00
1.1970988994e+00
1.1975031234e+00
1.1979576789e+00
1.1984490084e+00
1.1989631637e+00
1.1994866917e+00
1.2000069596e+00
1.2005128630e+00
1.2009949337e+00
1.2014457677e+00
1.2018598930e+00
1.2022339131e+00
1.2025661876e+00
1.2028567619e+00
1.2031069562e+00
1.2033191869e+00
1.2034965632e+00
1.2036426968e+00
1.2037613762e+00
1.2038564276e+00
1.2039314972e+00
1.2039899848e+00
1.2040349281e+00
1.2040690025e+00
1.2040944798e+00
1.2041132711e+00
1.2041269306e+00
1.2041367153e+00
1.2041436084e+00
1.2041483792e+00
1.2041516078e+00
1.2041537362e+00
1.2041550870e+00
1.2041559021e+00
1.2041563537e+00
1.2041565715e+00
1.2041566475e+00
1.2041566543e+00
1.2041566462e+00
1.2041566702e+00
1.2041567664e+00
1.2041569740e+00
1.2041573310e+00
1.2041578778e+00
1.2041586571e+00
1.2041597154e+00
1.2041611031e+00
1.2041628746e+00
1.2041650894e+00
1.2041678098e+00
1.2041711034e+00
1.2041750392e+00
1.2041796910e+00
1.2041851331e+00
1.2041914462e+00
1.2041987140e+00
1.2042070336e+00
1.2042165160e+00
1.2042273034e+00
1.2042395741e+00
1.2042535658e+00
1.2042695806e+00
1.2042880046e+00
1.2043092994e+00
1.2043339981e+00
1.2043626642e+00
1.2043958422e+00
1.2044339715e+00
1.2044772910e+00
1.2045257243e+00
1.2045787756e+00
1.2046354447e+00
1.2046941866e+00
1.2047529317e+00
1.2048091792e+00
1.2048601602e+00
1.2049030724e+00
1.2049353337e+00
1.2049548735e+00
1.2049603398e+00
1.2049513051e+00
1.2049282836e+00
1.2048927490e+00
1.2048469152e+00
1.2047935820e+00
1.2047357712e+00
1.2046765252e+00
1.2046185645e+00
1.2045641792e+00
1.2045150376e+00
1.2044722285e+00
1.2044362428e+00
1.2044071271e+00
1.2043845702e+00
1.2043680793e+00
1.2043650683e+00
1.1968624620e+00
1.1970103163e+00
1.1971783726e+00
1.1974219471e+00
1.1977329944e+00
1.1981013726e+00
1.1985155846e+00
1.1989631637e+00
1.1994315202e+00
1.1999082854e+00
1.2003820745e+00
1.2008426697e+00
1.2012815631e+00
1.2016919232e+00
1.2020688681e+00
1.2024092330e+00
1.2027116076e+00
1.2029759769e+00
1.2032036077e+00
1.2033966568e+00
1.2035580030e+00
1.2036909009e+00
1.2037988340e+00
1.2038852593e+00
1.2039535199e+00
1.2040066903e+00
1.2040475522e+00
1.2040785242e+00
1.2041016864e+00
1.2041187648e+00
1.2041311829e+00
1.2041400743e+00
1.2041463408e+00
1.2041506740e+00
1.2041536077e+00
1.2041555375e+00
1.2041567621e+00
1.2041574961e+00
1.2041579007e+00
1.2041580897e+00
1.2041581507e+00
1.2041581466e+00
1.2041581297e+00
1.2041581408e+00
1.2041582185e+00
1.2041583971e+00
1.2041587127e+00
1.2041592012e+00
1.2041599020e+00
1.2041608568e+00
1.2041621109e+00
1.2041637131e+00
1.2041657148e+00
1.2041681715e+00
1.2041711395e+00
1.2041746785e+00
1.2041788474e+00
1.2041837086e+00
1.2041893248e+00
1.2041957666e+00
1.2042031129e+00
1.2042114653e+00
1.2042209550e+00
1.2042317650e+00
1.2042441419e+00
1.2042584208e+00
1.2042750324e+00
1.2042945132e+00
1.2043174866e+00
1.2043446338e+00
1.2043766270e+00
1.2044140435e+00
1.2044572510e+00
1.2045062819e+00
1.2045607128e+00
1.2046195628e+00
1.2046812479e+00
1.2047435916e+00
1.2048039249e+00
1.2048592627e+00
1.2049065470e+00
1.2049429471e+00
1.2049661380e+00
1.2049745893e+00
1.2049677119e+00
1.2049459872e+00
1.2049108637e+00
1.2048646742e+00
1.2048103063e+00
1.2047509912e+00
1.2046899027e+00
1.2046299750e+00
1.2045736047e+00
1.2045226134e+00
1.2044781377e+00
1.2044407432e+00
1.2044104710e+00
1.2043870247e+00
1.2043698803e+00
1.2043667025e+00
1.1975878159e+00
1.1977274672e+00
1.1978790415e+00
1.1980986142e+00
1.1983788475e+00
1.1987106889e+00
1.1990836766e+00
1.1994866917e+00
1.1999082854e+00
1.2003374404e+00
1.2007637997e+00
1.2011782829e+00
1.2015731366e+00
1.2019423190e+00
1.2022813571e+00
1.2025874937e+00
1.2028593965e+00
1.2030971245e+00
1.2033017690e+00
1.2034753257e+00
1.2036203470e+00
1.2037398014e+00
1.2038367936e+00
1.2039144623e+00
1.2039757920e+00
1.2040235681e+00
1.2040602749e+00
1.2040881019e+00
1.2041089054e+00
1.2041242485e+00
1.2041353994e+00
1.2041433858e+00
1.2041490093e+00
1.2041528984e+00
1.2041555257e+00
1.2041572525e+00
1.2041583413e+00
1.2041589902e+00
1.2041593392e+00
1.2041594950e+00
1.2041595328e+00
1.2041595127e+00
1.2041594791e+00
1.2041594716e+00
1.2041595232e+00
1.2041596669e+00
1.2041599340e+00
1.2041603582e+00
1.2041609744e+00
1.2041618204e+00
1.2041629362e+00
1.2041643647e+00
1.2041661510e+00
1.2041683415e+00
1.2041709844e+00
1.2041741268e+00
1.2041778170e+00
1.2041821017e+00
1.2041870309e+00
1.2041926579e+00
1.2041990503e+00
1.2042062964e+00
1.2042145254e+00
1.2042239211e+00
1.2042347502e+00
1.2042473777e+00
1.2042622904e+00
1.2042800962e+00
1.2043015171e+00
1.2043273467e+00
1.2043583849e+00
1.2043953372e+00
1.2044386885e+00
1.2044885654e+00
1.2045445938e+00
1.2046057961e+00
1.2046705231e+00
1.2047364783e+00
1.2048008109e+00
1.2048603134e+00
1.2049116863e+00
1.2049518476e+00
1.2049782683e+00
1.2049892301e+00
1.2049840648e+00
1.2049631894e+00
1.2049281280e+00
1.2048812690e+00
1.2048256888e+00
1.2047647369e+00
1.2047018060e+00
1.2046399403e+00
1.2045817111e+00
1.2045289971e+00
1.2044830323e+00
1.2044443824e+00
1.2044131181e+00
1.2043889097e+00
1.2043712248e+00
1.2043678721e+00
1.1983092538e+00
1.1984406225e+00
1.1985757918e+00
1.1987713973e+00
1.1990209739e+00
1.1993163692e+00
1.1996483651e+00
1.2000069596e+00
1.2003820745e+00
1.2007637997e+00
1.2011430349e+00
1.2015116032e+00
1.2018627161e+00
1.2021909147e+00
1.2024923163e+00
1.2027643996e+00
1.2030060586e+00
1.2032172920e+00
1.2033991313e+00
1.2035533095e+00
1.2036821420e+00
1.2037882357e+00
1.2038743839e+00
1.2039433519e+00
1.2039978160e+00
1.2040402327e+00
1.2040728265e+00
1.2040975277e+00
1.2041159983e+00
1.2041296145e+00
1.2041395129e+00
1.2041465961e+00
1.2041515839e+00
1.2041550265e+00
1.2041573501e+00
1.2041588689e+00
1.2041598217e+00
1.2041603791e+00
1.2041606703e+00
1.2041607858e+00
1.2041607966e+00
1.2041607530e+00
1.2041606980e+00
1.2041606644e+00
1.2041606844e+00
1.2041607858e+00
1.2041609986e+00
1.2041613519e+00
1.2041618776e+00
1.2041626089e+00
1.2041635811e+00
1.2041648313e+00
1.2041663977e+00
1.2041683192e+00
1.2041706338e+00
1.2041733791e+00
1.2041765898e+00
1.2041803007e+00
1.2041845460e+00
1.2041893669e+00
1.2041948167e+00
1.2042009776e+00
1.2042079741e+00
1.2042160006e+00
1.2042253421e+00
1.2042364044e+00
1.2042497295e+00
1.2042660062e+00
1.2042860532e+00
1.2043107792e+00
1.2043411069e+00
1.2043778608e+00
1.2044216331e+00
1.2044726212e+00
1.2045304871e+00
1.2045942239e+00
1.2046621054e+00
1.2047316870e+00
1.2047999307e+00
1.2048634004e+00
1.2049185565e+00
1.2049620961e+00
1.2049912856e+00
1.2050042880e+00
1.2050003380e+00
1.2049798860e+00
1.2049444822e+00
1.2048966790e+00
1.2048396573e+00
1.2047769860e+00
1.2047121697e+00
1.2046484457e+00
1.2045884508e+00
1.2045341838e+00
1.2044868843e+00
1.2044471633e+00
1.2044150563e+00
1.2043902315e+00
1.2043721107e+00
1.2043685849e+00
1.1990112025e+00
1.1991344499e+00
1.1992535888e+00
1.1994258673e+00
1.1996455210e+00
1.1999054566e+00
1.2001974704e+00
1.2005128630e+00
1.2008426697e+00
1.2011782829e+00
1.2015116032e+00
1.2018355476e+00
1.2021440610e+00
1.2024324417e+00
1.2026972039e+00
1.2029362144e+00
1.2031484426e+00
1.2033339538e+00
1.2034936091e+00
1.2036289819e+00
1.2037420716e+00
1.2038352060e+00
1.2039108118e+00
1.2039713453e+00
1.2040191359e+00
1.2040563604e+00
1.2040849558e+00
1.2041066311e+00
1.2041228323e+00
1.2041347783e+00
1.2041434558e+00
1.2041496658e+00
1.2041540313e+00
1.2041570420e+00
1.2041590649e+00
1.2041603816e+00
1.2041611960e+00
1.2041616628e+00
1.2041618909e+00
1.2041619642e+00
1.2041619415e+00
1.2041618708e+00
1.2041617871e+00
1.2041617226e+00
1.2041617036e+00
1.2041617573e+00
1.2041619086e+00
1.2041621850e+00
1.2041626136e+00
1.2041632242e+00
1.2041640469e+00
1.2041651131e+00
1.2041664545e+00
1.2041681016e+00
1.2041700840e+00
1.2041724276e+00
1.2041751563e+00
1.2041782907e+00
1.2041818528e+00
1.2041858695e+00
1.2041903854e+00
1.2041954747e+00
1.2042012651e+00
1.2042079611e+00
1.2042158759e+00
1.2042254572e+00
1.2042373115e+00
1.2042522098e+00
1.2042710725e+00
1.2042949228e+00
1.2043247999e+00
1.2043616425e+00