# vtk DataFile Version 2.0
Blank
ASCII
DATASET STRUCTURED_GRID
DIMENSIONS 101 101 2
POINTS 20402 float
0.0000000000e+00 0.0000000000e+00 0.0000000000e+00
1.0000000000e-02 0.0000000000e+00 0.0000000000e+00
2.0000000000e-02 0.0000000000e+00 0.0000000000e+00
3.0000000000e-02 0.0000000000e+00 0.0000000000e+00
4.0000000000e-02 0.0000000000e+00 0.0000000000e+00
5.0000000000e-02 0.0000000000e+00 0.0000000000e+00
6.0000000000e-02 0.0000000000e+00 0.0000000000e+00
7.0000000000e-02 0.0000000000e+00 0.0000000000e+00
8.0000000000e-02 0.0000000000e+00 0.0000000000e+00
9.0000000000e-02 0.0000000000e+00 0.0000000000e+00
1.0000000000e-01 0.0000000000e+00 0.0000000000e+00
1.1000000000e-01 0.0000000000e+00 0.0000000000e+00
1.2000000000e-01 0.0000000000e+00 0.0000000000e+00
1.3000000000e-01 0.0000000000e+00 0.0000000000e+00
1.4000000000e-01 0.0000000000e+00 0.0000000000e+00
1.5000000000e-01 0.0000000000e+00 0.0000000000e+00
1.6000000000e-01 0.0000000000e+00 0.0000000000e+00
1.7000000000e-01 0.0000000000e+00 0.0000000000e+00
1.8000000000e-01 0.0000000000e+00 0.0000000000e+00
1.9000000000e-01 0.0000000000e+00 0.0000000000e+00
2.0000000000e-01 0.0000000000e+00 0.0000000000e+00
2.1000000000e-01 0.0000000000e+00 0.0000000000e+00
2.2000000000e-01 0.0000000000e+00 0.0000000000e+00
2.3000000000e-01 0.0000000000e+00 0.0000000000e+00
2.4000000000e-01 0.0000000000e+00 0.0000000000e+00
2.5000000000e-01 0.0000000000e+00 0.0000000000e+00
2.6000000000e-01 0.0000000000e+00 0.0000000000e+00
2.7000000000e-01 0.0000000000e+00 0.0000000000e+00
2.8000000000e-01 0.0000000000e+00 0.0000000000e+00
2.9000000000e-01 0.0000000000e+00 0.0000000000e+00
3.0000000000e-01 0.0000000000e+00 0.0000000000e+00
3.1000000000e-01 0.0000000000e+00 0.0000000000e+00
3.2000000000e-01 0.0000000000e+00 0.0000000000e+00
3.3000000000e-01 0.0000000000e+00 0.0000000000e+00
3.4000000000e-01 0.0000000000e+00 0.0000000000e+00
3.5000000000e-01 0.0000000000e+00 0.0000000000e+00
3.6000000000e-01 0.0000000000e+00 0.0000000000e+00
3.7000000000e-01 0.0000000000e+00 0.0000000000e+00
3.8000000000e-01 0.0000000000e+00 0.0000000000e+00
3.9000000000e-01 0.0000000000e+00 0.0000000000e+00
4.0000000000e-01 0.0000000000e+00 0.0000000000e+00
4.1000000000e-01 0.0000000000e+00 0.0000000000e+00
4.2000000000e-01 0.0000000000e+00 0.0000000000e+00
4.3000000000e-01 0.0000000000e+00 0.0000000000e+00
4.4000000000e-01 0.0000000000e+00 0.0000000000e+00
4.5000000000e-01 0.0000000000e+00 0.0000000000e+00
4.6000000000e-01 0.0000000000e+00 0.0000000000e+00
4.7000000000e-01 0.0000000000e+00 0.0000000000e+00
4.8000000000e-01 0.0000000000e+00 0.0000000000e+00
4.9000000000e-01 0.0000000000e+00 0.0000000000e+00
5.0000000000e-01 0.0000000000e+00 0.0000000000e+00
5.1000000000e-01 0.0000000000e+00 0.0000000000e+00
5.2000000000e-01 0.0000000000e+00 0.0000000000e+00
5.3000000000e-01 0.0000000000e+00 0.0000000000e+00
5.4000000000e-01 0.0000000000e+00 0.0000000000e+00
5.5000000000e-01 0.0000000000e+00 0.0000000000e+00
5.6000000000e-01 0.0000000000e+00 0.0000000000e+00
5.7000000000e-01 0.0000000000e+00 0.0000000000e+00
5.8000000000e-01 0.0000000000e+00 0.0000000000e+00
5.9000000000e-01 0.0000000000e+00 0.0000000000e+00
6.0000000000e-01 0.0000000000e+00 0.0000000000e+00
6.1000000000e-01 0.0000000000e+00 0.0000000000e+00
6.2000000000e-01 0.0000000000e+00 0.0000000000e+00
6.3000000000e-01 0.0000000000e+00 0.0000000000e+00
6.4000000000e-01 0.0000000000e+00 0.0000000000e+00
6.5000000000e-01 0.0000000000e+00 0.0000000000e+00
6.6000000000e-01 0.0000000000e+00 0.0000000000e+00
6.7000000000e-01 0.0000000000e+00 0.0000000000e+00
6.8000000000e-01 0.0000000000e+00 0.0000000000e+00
6.9000000000e-01 0.0000000000e+00 0.0000000000e+00
7.0000000000e-01 0.0000000000e+00 0.0000000000e+00
7.1000000000e-01 0.0000000000e+00 0.0000000000e+00
7.2000000000e-01 0.0000000000e+00 0.0000000000e+00
7.3000000000e-01 0.0000000000e+00 0.0000000000e+00
7.4000000000e-01 0.0000000000e+00 0.0000000000e+00
7.5000000000e-01 0.0000000000e+00 0.0000000000e+00
7.6000000000e-01 0.0000000000e+00 0.0000000000e+00
7.7000000000e-01 0.0000000000e+00 0.0000000000e+00
7.8000000000e-01 0.0000000000e+00 0.0000000000e+00
7.9000000000e-01 0.0000000000e+00 0.0000000000e+00
8.0000000000e-01 0.0000000000e+00 0.0000000000e+00
8.1000000000e-01 0.0000000000e+00 0.0000000000e+00
8.2000000000e-01 0.0000000000e+00 0.0000000000e+00
8.3000000000e-01 0.0000000000e+00 0.0000000000e+00
8.4000000000e-01 0.0000000000e+00 0.0000000000e+00
8.5000000000e-01 0.0000000000e+00 0.0000000000e+00
8.6000000000e-01 0.0000000000e+00 0.0000000000e+00
8.7000000000e-01 0.0000000000e+00 0.0000000000e+00
8.8000000000e-01 0.0000000000e+00 0.0000000000e+00
8.9000000000e-01 0.0000000000e+00 0.0000000000e+00
9.0000000000e-01 0.0000000000e+00 0.0000000000e+00
9.1000000000e-01 0.0000000000e+00 0.0000000000e+00
9.2000000000e-01 0.0000000000e+00 0.0000000000e+00
9.3000000000e-01 0.0000000000e+00 0.0000000000e+00
9.4000000000e-01 0.0000000000e+00 0.0000000000e+00
9.5000000000e-01 0.0000000000e+00 0.0000000000e+00
9.6000000000e-01 0.0000000000e+00 0.0000000000e+00
9.7000000000e-01 0.0000000000e+00 0.0000000000e+00
9.8000000000e-01 0.0000000000e+00 0.0000000000e+00
9.9000000000e-01 0.0000000000e+00 0.0000000000e+00
1.0000000000e+00 0.0000000000e+00 0.0000000000e+00
0.0000000000e+00 1.0000000000e-02 0.0000000000e+00
1.0000000000e-02 1.0000000000e-02 0.0000000000e+00
2.0000000000e-02 1.0000000000e-02 0.0000000000e+00
3.0000000000e-02 1.0000000000e-02 0.0000000000e+00
4.0000000000e-02 1.0000000000e-02 0.0000000000e+00
5.0000000000e-02 1.0000000000e-02 0.0000000000e+00
6.0000000000e-02 1.0000000000e-02 0.0000000000e+00
7.0000000000e-02 1.0000000000e-02 0.0000000000e+00
8.0000000000e-02 1.0000000000e-02 0.0000000000e+00
9.0000000000e-02 1.0000000000e-02 0.0000000000e+00
1.0000000000e-01 1.0000000000e-02 0.0000000000e+00
1.1000000000e-01 1.0000000000e-02 0.0000000000e+00
1.2000000000e-01 1.0000000000e-02 0.0000000000e+00
1.3000000000e-01 1.0000000000e-02 0.0000000000e+00
1.4000000000e-01 1.0000000000e-02 0.0000000000e+00
1.5000000000e-01 1.0000000000e-02 0.0000000000e+00
1.6000000000e-01 1.0000000000e-02 0.0000000000e+00
1.7000000000e-01 1.0000000000e-02 0.0000000000e+00
1.8000000000e-01 1.0000000000e-02 0.0000000000e+00
1.9000000000e-01 1.0000000000e-02 0.0000000000e+00
2.0000000000e-01 1.0000000000e-02 0.0000000000e+00
2.1000000000e-01 1.0000000000e-02 0.0000000000e+00
2.2000000000e-01 1.0000000000e-02 0.0000000000e+00
2.3000000000e-01 1.0000000000e-02 0.0000000000e+00
2.4000000000e-01 1.0000000000e-02 0.0000000000e+00
2.5000000000e-01 1.0000000000e-02 0.0000000000e+00
2.6000000000e-01 1.0000000000e-02 0.0000000000e+00
2.7000000000e-01 1.0000000000e-02 0.0000000000e+00
2.8000000000e-01 1.0000000000e-02 0.0000000000e+00
2.9000000000e-01 1.0000000000e-02 0.0000000000e+00
3.0000000000e-01 1.0000000000e-02 0.0000000000e+00
3.1000000000e-01 1.0000000000e-02 0.0000000000e+00
3.2000000000e-01 1.0000000000e-02 0.0000000000e+00
3.3000000000e-01 1.0000000000e-02 0.0000000000e+00
3.4000000000e-01 1.0000000000e-02 0.0000000000e+00
3.5000000000e-01 1.0000000000e-02 0.0000000000e+00
3.6000000000e-01 1.0000000000e-02 0.0000000000e+00
3.7000000000e-01 1.0000000000e-02 0.0000000000e+00
3.8000000000e-01 1.0000000000e-02 0.0000000000e+00
3.9000000000e-01 1.0000000000e-02 0.0000000000e+00
4.0000000000e-01 1.0000000000e-02 0.0000000000e+00
4.1000000000e-01 1.0000000000e-02 0.0000000000e+00
4.2000000000e-01 1.0000000000e-02 0.0000000000e+00
4.3000000000e-01 1.0000000000e-02 0.0000000000e+00
4.4000000000e-01 1.0000000000e-02 0.0000000000e+00
4.5000000000e-01 1.0000000000e-02 0.0000000000e+00
4.6000000000e-01 1.0000000000e-02 0.0000000000e+00
4.7000000000e-01 1.0000000000e-02 0.0000000000e+00
4.8000000000e-01 1.0000000000e-02 0.0000000000e+00
4.9000000000e-01 1.0000000000e-02 0.0000000000e+00
5.0000000000e-01 1.0000000000e-02 0.0000000000e+00
5.1000000000e-01 1.0000000000e-02 0.0000000000e+00
5.2000000000e-01 1.0000000000e-02 0.0000000000e+00
5.3000000000e-01 1.0000000000e-02 0.0000000000e+00
5.4000000000e-01 1.0000000000e-02 0.0000000000e+00
5.5000000000e-01 1.0000000000e-02 0.0000000000e+00
5.6000000000e-01 1.0000000000e-02 0.0000000000e+00
5.7000000000e-01 1.0000000000e-02 0.0000000000e+00
5.8000000000e-01 1.0000000000e-02 0.0000000000e+00
5.9000000000e-01 1.0000000000e-02 0.0000000000e+00
6.0000000000e-01 1.0000000000e-02 0.0000000000e+00
6.1000000000e-01 1.0000000000e-02 0.0000000000e+00
6.2000000000e-01 1.0000000000e-02 0.0000000000e+00
6.3000000000e-01 1.0000000000e-02 0.0000000000e+00
6.4000000000e-01 1.0000000000e-02 0.0000000000e+00
6.5000000000e-01 1.0000000000e-02 0.0000000000e+00
6.6000000000e-01 1.0000000000e-02 0.0000000000e+00
6.7000000000e-01 1.0000000000e-02 0.0000000000e+00
6.8000000000e-01 1.0000000000e-02 0.0000000000e+00
6.9000000000e-01 1.0000000000e-02 0.0000000000e+00
7.0000000000e-01 1.0000000000e-02 0.0000000000e+00
7.1000000000e-01 1.0000000000e-02 0.0000000000e+00
7.2000000000e-01 1.0000000000e-02 0.0000000000e+00
7.3000000000e-01 1.0000000000e-02 0.0000000000e+00
7.4000000000e-01 1.0000000000e-02 0.0000000000e+00
7.5000000000e-01 1.0000000000e-02 0.0000000000e+00
7.6000000000e-01 1.0000000000e-02 0.0000000000e+00
7.7000000000e-01 1.0000000000e-02 0.0000000000e+00
7.8000000000e-01 1.0000000000e-02 0.0000000000e+00
7.9000000000e-01 1.0000000000e-02 0.0000000000e+00
8.0000000000e-01 1.0000000000e-02 0.0000000000e+00
8.1000000000e-01 1.0000000000e-02 0.0000000000e+00
8.2000000000e-01 1.0000000000e-02 0.0000000000e+00
8.3000000000e-01 1.0000000000e-02 0.0000000000e+00
8.4000000000e-01 1.0000000000e-02 0.0000000000e+00
8.5000000000e-01 1.0000000000e-02 0.0000000000e+00
8.6000000000e-01 1.0000000000e-02 0.0000000000e+00
8.7000000000e-01 1.0000000000e-02 0.0000000000e+00
8.8000000000e-01 1.0000000000e-02 0.0000000000e+00
8.9000000000e-01 1.0000000000e-02 0.0000000000e+00
9.0000000000e-01 1.0000000000e-02 0.0000000000e+00
9.1000000000e-01 1.0000000000e-02 0.0000000000e+00
9.2000000000e-01 1.0000000000e-02 0.0000000000e+00
[...]
CELL_DATA 10000

SCALARS massDensity float
LOOKUP_TABLE default
1.1965798960e+00
1.1966600616e+00
1.1967775508e+00
1.1969534866e+00
1.1971833515e+00
1.1974615243e+00
1.1977815152e+00
1.1981361721e+00
1.1985179383e+00
1.1989190788e+00
1.1993319421e+00
1.1997491672e+00
1.2001639032e+00
1.2005699573e+00
1.2009619408e+00
1.2013353376e+00
1.2016865648e+00
1.2020129606e+00
1.2023127691e+00
1.2025850629e+00
1.2028296730e+00
1.2030470735e+00
1.2032382834e+00
1.2034047395e+00
1.2035481962e+00
1.2036706094e+00
1.2037740523e+00
1.2038606239e+00
1.2039323904e+00
1.2039913238e+00
1.2040392707e+00
1.2040779180e+00
1.2041087851e+00
1.2041332116e+00
1.2041523657e+00
1.2041672457e+00
1.2041786979e+00
1.2041874253e+00
1.2041940092e+00
1.2041989197e+00
1.2042025367e+00
1.2042051598e+00
1.2042070262e+00
1.2042083185e+00
1.2042091786e+00
1.2042097134e+00
1.2042100053e+00
1.2042101153e+00
1.2042100909e+00
1.2042099680e+00
1.2042097765e+00
1.2042095415e+00
1.2042092877e+00
1.2042090406e+00
1.2042088302e+00
1.2042086922e+00
1.2042086719e+00
1.2042088249e+00
1.2042092206e+00
1.2042099431e+00
1.2042110927e+00
1.2042127853e+00
1.2042151514e+00
1.2042183326e+00
1.2042224769e+00
1.2042277311e+00
1.2042342315e+00
1.2042420936e+00
1.2042513993e+00
1.2042621856e+00
1.2042744328e+00
1.2042880553e+00
1.2043028963e+00
1.2043187257e+00
1.2043352443e+00
1.2043520930e+00
1.2043688668e+00
1.2043851351e+00
1.2044004630e+00
1.2044144365e+00
1.2044266858e+00
1.2044369082e+00
1.2044448841e+00
1.2044504916e+00
1.2044537102e+00
1.2044546215e+00
1.2044533999e+00
1.2044503004e+00
1.2044456381e+00
1.2044397693e+00
1.2044330662e+00
1.2044258988e+00
1.2044186150e+00
1.2044115320e+00
1.2044049285e+00
1.2043990478e+00
1.2043940963e+00
1.2043902402e+00
1.2043875823e+00
1.2044084252e+00
1.1966600616e+00
1.1967443279e+00
1.1968632003e+00
1.1970392127e+00
1.1972681761e+00
1.1975447239e+00
1.1978625327e+00
1.1982145982e+00
1.1985934595e+00
1.1989914859e+00
1.1994010918e+00
1.1998149982e+00
1.2002264025e+00
1.2006291770e+00
1.2010179664e+00
1.2013883035e+00
1.2017366243e+00
1.2020603002e+00
1.2023575809e+00
1.2026275580e+00
1.2028700576e+00
1.2030855606e+00
1.2032750732e+00
1.2034400307e+00
1.2035821696e+00
1.2037034393e+00
1.2038058928e+00
1.2038916201e+00
1.2039626676e+00
1.2040209980e+00
1.2040684395e+00
1.2041066707e+00
1.2041371956e+00
1.2041613469e+00
1.2041802801e+00
1.2041949887e+00
1.2042063087e+00
1.2042149405e+00
1.2042214571e+00
1.2042263274e+00
1.2042299252e+00
1.2042325495e+00
1.2042344331e+00
1.2042357587e+00
1.2042366648e+00
1.2042372589e+00
1.2042376207e+00
1.2042378119e+00
1.2042378780e+00
1.2042378554e+00
1.2042377722e+00
1.2042376538e+00
1.2042375229e+00
1.2042374046e+00
1.2042373260e+00
1.2042373206e+00
1.2042374289e+00
1.2042377011e+00
1.2042381978e+00
1.2042389922e+00
1.2042401692e+00
1.2042418255e+00
1.2042440673e+00
1.2042470066e+00
1.2042507562e+00
1.2042554227e+00
1.2042610986e+00
1.2042678526e+00
1.2042757203e+00
1.2042846951e+00
1.2042947205e+00
1.2043056849e+00
1.2043174196e+00
1.2043297011e+00
1.2043422573e+00
1.2043547787e+00
1.2043669327e+00
1.2043783810e+00
1.2043887989e+00
1.2043978933e+00
1.2044054215e+00
1.2044112040e+00
1.2044151362e+00
1.2044171912e+00
1.2044174228e+00
1.2044159565e+00
1.2044129834e+00
1.2044087434e+00
1.2044035131e+00
1.2043975865e+00
1.2043912632e+00
1.2043848316e+00
1.2043785637e+00
1.2043727061e+00
1.2043674854e+00
1.2043631095e+00
1.2043597839e+00
1.2043577274e+00
1.2043572152e+00
1.2043796489e+00
1.1967775508e+00
1.1968632003e+00
1.1969810964e+00
1.1971548885e+00
1.1973805693e+00
1.1976529212e+00
1.1979657904e+00
1.1983123017e+00
1.1986851523e+00
1.1990768281e+00
1.1994798908e+00
1.1998871641e+00
1.2002919746e+00
1.2006882767e+00
1.2010708186e+00
1.2014351893e+00
1.2017778978e+00
1.2020963442e+00
1.2023888205e+00
1.2026544213e+00
1.2028929881e+00
1.2031049847e+00
1.2032914118e+00
1.2034536738e+00
1.2035934888e+00
1.2037127676e+00
1.2038135385e+00
1.2038978515e+00
1.2039677270e+00
1.2040250904e+00
1.2040717463e+00
1.2041093411e+00
1.2041393591e+00
1.2041631074e+00
1.2041817265e+00
1.2041961900e+00
1.2042073237e+00
1.2042158130e+00
1.2042222248e+00
1.2042270170e+00
1.2042305600e+00
1.2042331454e+00
1.2042350042e+00
1.2042363138e+00
1.2042372128e+00
1.2042378047e+00
1.2042381700e+00
1.2042383679e+00
1.2042384450e+00
1.2042384363e+00
1.2042383716e+00
1.2042382758e+00
1.2042381741e+00
1.2042380924e+00
1.2042380614e+00
1.2042381170e+00
1.2042383043e+00
1.2042386778e+00
1.2042393043e+00
1.2042402625e+00
1.2042416438e+00
1.2042435507e+00
1.2042460946e+00
1.2042493906e+00
1.2042535524e+00
1.2042586838e+00
1.2042648702e+00
1.2042721684e+00
1.2042805968e+00
1.2042901260e+00
1.2043006726e+00
1.2043120941e+00
1.2043241896e+00
1.2043367034e+00
1.2043493342e+00
1.2043617485e+00
1.2043735973e+00
1.2043845356e+00
1.2043942418e+00
1.2044024381e+00
1.2044089060e+00
1.2044135001e+00
1.2044161548e+00
1.2044168879e+00
1.2044157957e+00
1.2044130467e+00
1.2044088668e+00
1.2044035277e+00
1.2043973266e+00
1.2043905743e+00
1.2043835771e+00
1.2043766293e+00
1.2043700018e+00
1.2043639439e+00
1.2043586808e+00
1.2043544264e+00
1.2043513916e+00
1.2043498113e+00
1.2043499756e+00
1.2043712789e+00
1.1969534866e+00
1.1970392127e+00
1.1971548885e+00
1.1973249837e+00
1.1975455884e+00
1.1978116558e+00
1.1981171873e+00
1.1984555136e+00
1.1988195000e+00
1.1992018448e+00
1.1995952718e+00
1.1999928034e+00
1.2003879066e+00
1.2007747044e+00
1.2011480515e+00
1.2015036636e+00
1.2018381163e+00
1.2021488904e+00
1.2024343041e+00
1.2026934900e+00
1.2029262811e+00
1.2031331438e+00
1.2033150447e+00
1.2034733660e+00
1.2036097760e+00
1.2037261493e+00
1.2038244581e+00
1.2039067110e+00
1.2039748736e+00
1.2040308314e+00
1.2040763399e+00
1.2041130114e+00
1.2041422894e+00
1.2041654539e+00
1.2041836135e+00
1.2041977220e+00
1.2042085816e+00
1.2042168641e+00
1.2042231195e+00
1.2042277972e+00
1.2042312558e+00
1.2042337822e+00
1.2042355993e+00
1.2042368825e+00
1.2042377645e+00
1.2042383487e+00
1.2042387117e+00
1.2042389131e+00
1.2042389973e+00
1.2042390005e+00
1.2042389511e+00
1.2042388761e+00
1.2042388007e+00
1.2042387533e+00
1.2042387662e+00
1.2042388791e+00
1.2042391403e+00
1.2042396095e+00
1.2042403582e+00
1.2042414715e+00
1.2042430464e+00
1.2042451916e+00
1.2042480230e+00
1.2042516595e+00
1.2042562156e+00
1.2042617929e+00
1.2042684703e+00
1.2042762936e+00
1.2042852646e+00
1.2042953332e+00
1.2043063897e+00
1.2043182626e+00
1.2043307196e+00
1.2043434742e+00
1.2043561966e+00
1.2043685297e+00
1.2043801082e+00
1.2043905791e+00
1.2043996243e+00
1.2044069783e+00
1.2044124463e+00
1.2044159139e+00
1.2044173543e+00
1.2044168260e+00
1.2044144690e+00
1.2044104909e+00
1.2044051553e+00
1.2043987617e+00
1.2043916317e+00
1.2043840888e+00
1.2043764492e+00
1.2043690069e+00
1.2043620319e+00
1.2043557648e+00
1.2043504242e+00
1.2043462097e+00
1.2043433183e+00
1.2043419561e+00
1.2043423650e+00
1.2043613771e+00
1.1971833515e+00
1.1972681761e+00
1.1973805693e+00
1.1975455884e+00
1.1977594511e+00
1.1980172558e+00
1.1983132268e+00
1.1986408936e+00
1.1989933827e+00
1.1993636052e+00
1.1997445481e+00
1.2001294329e+00
1.2005119635e+00
1.2008864266e+00
1.2012478671e+00
1.2015921158e+00
1.2019158805e+00
1.2022167039e+00
1.2024929781e+00
1.2027438479e+00
1.2029691687e+00
1.2031693795e+00
1.2033454303e+00
1.2034986487e+00
1.2036306615e+00
1.2037432748e+00
1.2038384072e+00
1.2039179959e+00
1.2039839511e+00
1.2040380920e+00
1.2040821238e+00
1.2041176019e+00
1.2041459286e+00
1.2041683381e+00
1.2041859077e+00
1.2041995564e+00
1.2042100640e+00
1.2042180774e+00
1.2042241316e+00
1.2042286587e+00
1.2042320081e+00
1.2042344548e+00
1.2042362169e+00
1.2042374617e+00
1.2042383199e+00
1.2042388893e+00
1.2042392462e+00
1.2042394468e+00
1.2042395359e+00
1.2042395477e+00
1.2042395120e+00
1.2042394549e+00
1.2042394036e+00
1.2042393872e+00
1.2042394409e+00
1.2042396066e+00
1.2042399369e+00
1.2042404953e+00
1.2042413588e+00
1.2042426175e+00
1.2042443750e+00
1.2042467450e+00
1.2042498488e+00
1.2042538086e+00
1.2042587403e+00
1.2042647436e+00
1.2042718919e+00
1.2042802205e+00
1.2042897167e+00
1.2043003099e+00
1.2043118662e+00
1.2043241862e+00
1.2043370078e+00
1.2043500145e+00
1.2043628489e+00
1.2043751304e+00
1.2043864770e+00
1.2043965279e+00
1.2044049657e+00
1.2044115371e+00
1.2044160677e+00
1.2044184735e+00
1.2044187624e+00
1.2044170341e+00
1.2044134681e+00
1.2044083128e+00
1.2044018655e+00
1.2043944567e+00
1.2043864284e+00
1.2043781207e+00
1.2043698546e+00
1.2043619263e+00
1.2043545981e+00
1.2043481020e+00
1.2043426391e+00
1.2043383909e+00
1.2043355250e+00
1.2043342111e+00
1.2043346278e+00
1.2043508319e+00
1.1974615243e+00
1.1975447239e+00
1.1976529212e+00
1.1978116558e+00
1.1980172558e+00
1.1982650296e+00
1.1985494066e+00
1.1988642031e+00
1.1992027937e+00
1.1995584037e+00
1.1999242715e+00
1.2002939198e+00
1.2006612751e+00
1.2010208814e+00
1.2013679546e+00
1.2016985187e+00
1.2020093899e+00
1.2022982330e+00
1.2025634849e+00
1.2028043454e+00
1.2030206600e+00
1.2032128677e+00
1.2033818682e+00
1.2035289503e+00
1.2036556658e+00
1.2037637603e+00
1.2038550676e+00
1.2039314566e+00
1.2039947546e+00
1.2040467151e+00
1.2040889697e+00
1.2041230171e+00
1.2041501988e+00
1.2041717041e+00
1.2041885629e+00
1.2042016613e+00
1.2042117441e+00
1.2042194355e+00
1.2042252458e+00
1.2042295924e+00
1.2042328080e+00
1.2042351588e+00
1.2042368518e+00
1.2042380497e+00
1.2042388758e+00
1.2042394261e+00
1.2042397718e+00
1.2042399691e+00
1.2042400596e+00
1.2042400783e+00
1.2042400534e+00
1.2042400124e+00
1.2042399823e+00
1.2042399944e+00
1.2042400851e+00
1.2042402997e+00
1.2042406934e+00
1.2042413345e+00
1.2042423043e+00
1.2042436989e+00
1.2042456267e+00
1.2042482078e+00
1.2042515678e+00
1.2042558330e+00
1.2042611206e+00
1.2042675294e+00
1.2042751275e+00
1.2042839417e+00
1.2042939449e+00
1.2043050483e+00
1.2043170949e+00
1.2043298592e+00
1.2043430502e+00
1.2043563228e+00
1.2043692922e+00
1.2043815551e+00
1.2043927121e+00
1.2044023932e+00
1.2044102814e+00
1.2044161324e+00
1.2044197915e+00
1.2044212009e+00
1.2044204033e+00
1.2044175349e+00
1.2044128158e+00
1.2044065309e+00
1.2043990137e+00
1.2043906218e+00
1.2043817209e+00
1.2043726636e+00
1.2043637796e+00
1.2043553625e+00
1.2043476695e+00
1.2043409177e+00
1.2043352920e+00
1.2043309488e+00
1.2043280285e+00
1.2043266610e+00
1.2043269766e+00
1.2043402208e+00
1.1977815152e+00
1.1978625327e+00
1.1979657904e+00
1.1981171873e+00
1.1983132268e+00
1.1985494066e+00
1.1988204431e+00
1.1991204160e+00
1.1994430457e+00
1.1997818482e+00
1.2001304165e+00
1.2004825498e+00
1.2008324962e+00
1.2011750294e+00
1.2015056238e+00
1.2018204660e+00
1.2021165515e+00
1.2023916338e+00
1.2026442486e+00
1.2028736151e+00
1.2030796068e+00
1.2032626268e+00
1.2034235488e+00
1.2035635882e+00
1.2036842364e+00
1.2037871462e+00
1.2038740745e+00
1.2039467933e+00
1.2040070510e+00
1.2040565110e+00
1.2040967335e+00
1.2041291403e+00
1.2041550137e+00
1.2041754818e+00
1.2041915292e+00
1.2042039958e+00
1.2042135942e+00
1.2042209150e+00
1.2042264472e+00
1.2042305851e+00
1.2042336480e+00
1.2042358868e+00
1.2042375007e+00
1.2042386423e+00
1.2042394311e+00
1.2042399564e+00
1.2042402883e+00
1.2042404785e+00
1.2042405688e+00
1.2042405915e+00
1.2042405759e+00
1.2042405482e+00
1.2042405372e+00
1.2042405745e+00
1.2042406989e+00
1.2042409575e+00
1.2042414094e+00
1.2042421261e+00
1.2042431940e+00
1.2042447136e+00
1.2042467996e+00
1.2042495768e+00
1.2042531764e+00
1.2042577279e+00
1.2042633510e+00
1.2042701435e+00
1.2042781702e+00
1.2042874490e+00
1.2042979410e+00
1.2043095400e+00
1.2043220681e+00
1.2043352742e+00
1.2043488410e+00
1.2043623949e+00
1.2043755250e+00
1.2043878047e+00
1.2043988173e+00
1.2044081826e+00
1.2044155815e+00
1.2044207780e+00
1.2044236331e+00
1.2044241146e+00
1.2044222956e+00
1.2044183488e+00
1.2044125303e+00
1.2044051635e+00
1.2043966135e+00
1.2043872683e+00
1.2043775135e+00
1.2043677183e+00
1.2043582170e+00
1.2043493048e+00
1.2043412293e+00
1.2043341965e+00
1.2043283708e+00
1.2043238876e+00
1.2043208582e+00
1.2043193829e+00
1.2043195539e+00
1.2043298701e+00
1.1981361721e+00
1.1982145982e+00
1.1983123017e+00
1.1984555136e+00
1.1986408936e+00
1.1988642031e+00
1.1991204160e+00
1.1994039663e+00
1.1997088867e+00
1.2000290843e+00
1.2003584714e+00
1.2006912242e+00
1.2010218755e+00
1.2013455213e+00
1.2016578563e+00
1.2019553089e+00
1.2022350150e+00
1.2024948796e+00
1.2027334980e+00
1.2029501562e+00
1.2031447173e+00
1.2033175814e+00
1.2034695600e+00
1.2036018170e+00
1.2037157499e+00
1.2038129323e+00
1.2038950150e+00
1.2039636813e+00
1.2040205754e+00
1.2040672759e+00
1.2041052504e+00
1.2041358476e+00
1.2041602737e+00
1.2041795986e+00
1.2041947480e+00
1.2042065188e+00
1.2042155803e+00
1.2042224935e+00
1.2042277167e+00
1.2042316252e+00
1.2042345175e+00
1.2042366331e+00
1.2042381574e+00
1.2042392369e+00
1.2042399821e+00
1.2042404796e+00
1.2042407936e+00
1.2042409750e+00
1.2042410621e+00
1.2042410875e+00
1.2042410785e+00
1.2042410626e+00
1.2042410678e+00
1.2042411276e+00
1.2042412817e+00
1.2042415803e+00
1.2042420843e+00
1.2042428696e+00
1.2042440263e+00
1.2042456605e+00
1.2042478913e+00
1.2042508496e+00
1.2042546708e+00
1.2042594892e+00
1.2042654261e+00
1.2042725802e+00
1.2042810124e+00
1.2042907347e+00
1.2043016963e+00
1.2043137763e+00
1.2043267764e+00
1.2043404230e+00
1.2043543722e+00
1.2043682244e+00
1.2043815424e+00
1.2043938768e+00
1.2044047927e+00
1.2044138985e+00
1.2044208719e+00
1.2044254818e+00
1.2044276039e+00
1.2044272271e+00
1.2044244544e+00
1.2044194902e+00
1.2044126278e+00
1.2044042240e+00
1.2043946784e+00
1.2043844052e+00
1.2043738141e+00
1.2043632867e+00
1.2043531670e+00
1.2043437480e+00
1.2043352728e+00
1.2043279325e+00
1.2043218764e+00
1.2043172165e+00
1.2043140425e+00
1.2043124275e+00
1.2043124414e+00
1.2043199324e+00
1.1985179383e+00
1.1985934595e+00
1.1986851523e+00
1.1988195000e+00
1.1989933827e+00
1.1992027937e+00
1.1994430457e+00
1.1997088867e+00
1.1999947555e+00
1.2002949054e+00
1.2006036662e+00
1.2009155445e+00
1.2012254523e+00
1.2015287609e+00
1.2018214694e+00
1.2021002018e+00
1.2023623049e+00
1.2026057909e+00
1.2028293702e+00
1.2030323535e+00
1.2032146348e+00
1.2033765729e+00
1.2035189461e+00
1.2036428320e+00
1.2037495546e+00
1.2038405778e+00
1.2039174593e+00
1.2039817682e+00
1.2040350534e+00
1.2040787871e+00
1.2041143509e+00
1.2041430027e+00
1.2041658776e+00
1.2041839733e+00
1.2041981610e+00
1.2042091832e+00
1.2042176703e+00
1.2042241442e+00
1.2042290371e+00
1.2042326976e+00
1.2042354078e+00
1.2042373892e+00
1.2042388179e+00
1.2042398287e+00
1.2042405274e+00
1.2042409928e+00
1.2042412873e+00
1.2042414569e+00
1.2042415397e+00
1.2042415653e+00
1.2042415618e+00
1.2042415549e+00
1.2042415744e+00
1.2042416534e+00
1.2042418340e+00
1.2042421673e+00
1.2042427180e+00
1.2042435642e+00
1.2042448010e+00
1.2042465381e+00
1.2042489005e+00
1.2042520235e+00
1.2042560484e+00
1.2042611126e+00
1.2042673415e+00
1.2042748332e+00
1.2042836478e+00
1.2042937906e+00
1.2043052025e+00
1.2043177475e+00
1.2043312104e+00
1.2043452952e+00
1.2043596346e+00
1.2043738024e+00
1.2043873369e+00
1.2043997653e+00
1.2044106343e+00
1.2044195394e+00
1.2044261531e+00
1.2044302474e+00
1.2044317089e+00
1.2044305467e+00
1.2044268884e+00
1.2044209707e+00
1.2044131186e+00
1.2044037244e+00
1.2043932177e+00
1.2043820424e+00
1.2043706280e+00
1.2043593740e+00
1.2043486302e+00
1.2043386930e+00
1.2043297977e+00
1.2043221264e+00
1.2043158104e+00
1.2043109451e+00
1.2043075977e+00
1.2043058234e+00
1.2043056725e+00
1.2043104589e+00
1.1989190788e+00
1.1989914859e+00
1.1990768281e+00
1.1992018448e+00
1.1993636052e+00
1.1995584037e+00
1.1997818482e+00
1.2000290843e+00
1.2002949054e+00
1.2005740030e+00
1.2008610690e+00
1.2011510327e+00
1.2014391291e+00
1.2017210912e+00
1.2019931680e+00
1.2022522546e+00
1.2024958572e+00
1.2027221576e+00
1.2029299342e+00
1.2031185713e+00
1.2032879519e+00
1.2034384299e+00
1.2035707139e+00
1.2036858218e+00
1.2037849722e+00
1.2038695385e+00
1.2039409588e+00
1.2040007013e+00
1.2040501976e+00
1.2040908235e+00
1.2041238565e+00
1.2041504715e+00
1.2041717179e+00
1.2041885273e+00
1.2042017051e+00
1.2042119446e+00
1.2042198278e+00
1.2042258429e+00
1.2042303881e+00
1.2042337898e+00
1.2042363074e+00
1.2042381491e+00
1.2042394759e+00
1.2042404152e+00
1.2042410631e+00
1.2042414951e+00
1.2042417672e+00
1.2042419243e+00
1.2042420003e+00
1.2042420253e+00
1.2042420248e+00
1.2042420257e+00
1.2042420565e+00
1.2042421524e+00
1.2042423553e+00
1.2042427191e+00
1.2042433099e+00
1.2042442100e+00
1.2042455169e+00
1.2042473458e+00
1.2042498255e+00
1.2042530971e+00
1.2042573060e+00
1.2042625952e+00
1.2042690922e+00
1.2042768976e+00
1.2042860694e+00
1.2042966097e+00
1.2043084502e+00
1.2043214443e+00
1.2043353592e+00
1.2043498803e+00
1.2043646164e+00
1.2043791180e+00
1.2043928978e+00
1.2044054608e+00
1.2044163339e+00
1.2044250989e+00
1.2044314210e+00
1.2044350724e+00
1.2044359490e+00
1.2044340751e+00
1.2044296026e+00
1.2044227949e+00
1.2044140101e+00
1.2044036708e+00
1.2043922392e+00
1.2043801847e+00
1.2043679614e+00
1.2043559825e+00
1.2043446096e+00
1.2043341391e+00
1.2043248047e+00
1.2043167767e+00
1.2043101748e+00
1.2043050757e+00
1.2043015310e+00
1.2042995771e+00
1.2042992532e+00
1.2043014450e+00
1.1993319421e+00
1.1994010918e+00
1.1994798908e+00
1.1995952718e+00
1.1997445481e+00
1.1999242715e+00
1.2001304165e+00
1.2003584714e+00
1.2006036662e+00
1.2008610690e+00
1.2011258201e+00
1.2013932077e+00
1.2016588739e+00
1.2019188508e+00
1.2021697142e+00
1.2024085716e+00
1.2026331552e+00
1.2028417634e+00
1.2030332972e+00
1.2032071681e+00
1.2033632911e+00
1.2035019758e+00
1.2036238936e+00
1.2037299698e+00
1.2038213421e+00
1.2038992659e+00
1.2039650783e+00
1.2040201237e+00
1.2040657306e+00
1.2041031601e+00
1.2041335963e+00
1.2041581163e+00
1.2041776926e+00
1.2041931789e+00
1.2042053216e+00
1.2042147555e+00
1.2042220205e+00
1.2042275628e+00
1.2042317523e+00
1.2042348868e+00
1.2042372077e+00
1.2042389043e+00
1.2042401273e+00
1.2042409916e+00
1.2042415879e+00
1.2042419838e+00
1.2042422330e+00
1.2042423753e+00
1.2042424442e+00
1.2042424664e+00
1.2042424681e+00
1.2042424743e+00
1.2042425148e+00
1.2042426240e+00
1.2042428460e+00
1.2042432351e+00
1.2042438606e+00
1.2042448063e+00
1.2042461743e+00
1.2042480825e+00
1.2042506655e+00
1.2042540683e+00
1.2042584422e+00
1.2042639337e+00
1.2042706750e+00
1.2042787681e+00
1.2042882717e+00
1.2042991841e+00
1.2043114317e+00
1.2043248563e+00
1.2043392124e+00
1.2043541658e+00
1.2043693056e+00
1.2043841578e+00
1.2043982123e+00
1.2044109505e+00
1.2044218799e+00
1.2044305666e+00
1.2044366665e+00
1.2044399501e+00
1.2044403183e+00
1.2044378096e+00
1.2044325947e+00
1.2044249641e+00
1.2044153029e+00
1.2044040663e+00
1.2043917444e+00
1.2043788357e+00
1.2043658148e+00
1.2043531142e+00
1.2043411037e+00
1.2043300860e+00
1.2043202902e+00
1.2043118814e+00
1.2043049650e+00
1.2042996056e+00
1.2042958370e+00
1.2042936835e+00
1.2042931702e+00
1.2042928624e+00
1.1997491672e+00
1.1998149982e+00
1.1998871641e+00
1.1999928034e+00
1.2001294329e+00
1.2002939198e+00
1.2004825498e+00
1.2006912242e+00
1.2009155445e+00
1.2011510327e+00
1.2013932077e+00
1.2016377950e+00
1.2018807745e+00
1.2021185516e+00
1.2023479639e+00
1.2025663983e+00
1.2027717538e+00
1.2029625031e+00
1.2031376187e+00
1.2032965870e+00
1.2034393118e+00
1.2035660964e+00
1.2036775401e+00
1.2037745048e+00
1.2038580192e+00
1.2039292437e+00
1.2039893913e+00
1.2040397009e+00
1.2040813795e+00
1.2041155873e+00
1.2041434008e+00
1.2041658104e+00
1.2041836998e+00
1.2041978540e+00
1.2042089508e+00
1.2042175743e+00
1.2042242142e+00
1.2042292813e+00
1.2042331107e+00
1.2042359770e+00
1.2042380981e+00
1.2042396494e+00
1.2042407661e+00
1.2042415554e+00
1.2042420982e+00
1.2042424582e+00
1.2042426826e+00
1.2042428101e+00
1.2042428700e+00
1.2042428890e+00
1.2042428907e+00
1.2042429011e+00
1.2042429485e+00
1.2042430688e+00
1.2042433058e+00
1.2042437161e+00
1.2042443696e+00
1.2042453537e+00
1.2042467724e+00
1.2042487485e+00
1.2042514197e+00
1.2042549367e+00
1.2042594548e+00
1.2042651263e+00
1.2042720863e+00
1.2042804410e+00
1.2042902487e+00
1.2043015077e+00
1.2043141380e+00
1.2043279746e+00
1.2043427581e+00
1.2043581398e+00