# vtk DataFile Version 2.0
Blank
ASCII
DATASET STRUCTURED_GRID
DIMENSIONS 101 101 2
POINTS 20402 float
0.0000000000e+00 0.0000000000e+00 0.0000000000e+00
1.0000000000e-02 0.0000000000e+00 0.0000000000e+00
2.0000000000e-02 0.0000000000e+00 0.0000000000e+00
3.0000000000e-02 0.0000000000e+00 0.0000000000e+00
4.0000000000e-02 0.0000000000e+00 0.0000000000e+00
5.0000000000e-02 0.0000000000e+00 0.0000000000e+00
6.0000000000e-02 0.0000000000e+00 0.0000000000e+00
7.0000000000e-02 0.0000000000e+00 0.0000000000e+00
8.0000000000e-02 0.0000000000e+00 0.0000000000e+00
9.0000000000e-02 0.0000000000e+00 0.0000000000e+00
1.0000000000e-01 0.0000000000e+00 0.0000000000e+00
1.1000000000e-01 0.0000000000e+00 0.0000000000e+00
1.2000000000e-01 0.0000000000e+00 0.0000000000e+00
1.3000000000e-01 0.0000000000e+00 0.0000000000e+00
1.4000000000e-01 0.0000000000e+00 0.0000000000e+00
1.5000000000e-01 0.0000000000e+00 0.0000000000e+00
1.6000000000e-01 0.0000000000e+00 0.0000000000e+00
1.7000000000e-01 0.0000000000e+00 0.0000000000e+00
1.8000000000e-01 0.0000000000e+00 0.0000000000e+00
1.9000000000e-01 0.0000000000e+00 0.0000000000e+00
2.0000000000e-01 0.0000000000e+00 0.0000000000e+00
2.1000000000e-01 0.0000000000e+00 0.0000000000e+00
2.2000000000e-01 0.0000000000e+00 0.0000000000e+00
2.3000000000e-01 0.0000000000e+00 0.0000000000e+00
2.4000000000e-01 0.0000000000e+00 0.0000000000e+00
2.5000000000e-01 0.0000000000e+00 0.0000000000e+00
2.6000000000e-01 0.0000000000e+00 0.0000000000e+00
2.7000000000e-01 0.0000000000e+00 0.0000000000e+00
2.8000000000e-01 0.0000000000e+00 0.0000000000e+00
2.9000000000e-01 0.0000000000e+00 0.0000000000e+00
3.0000000000e-01 0.0000000000e+00 0.0000000000e+00
3.1000000000e-01 0.0000000000e+00 0.0000000000e+00
3.2000000000e-01 0.0000000000e+00 0.0000000000e+00
3.3000000000e-01 0.0000000000e+00 0.0000000000e+00
3.4000000000e-01 0.0000000000e+00 0.0000000000e+00
3.5000000000e-01 0.0000000000e+00 0.0000000000e+00
3.6000000000e-01 0.0000000000e+00 0.0000000000e+00
3.7000000000e-01 0.0000000000e+00 0.0000000000e+00
3.8000000000e-01 0.0000000000e+00 0.0000000000e+00
3.9000000000e-01 0.0000000000e+00 0.0000000000e+00
4.0000000000e-01 0.0000000000e+00 0.0000000000e+00
4.1000000000e-01 0.0000000000e+00 0.0000000000e+00
4.2000000000e-01 0.0000000000e+00 0.0000000000e+00
4.3000000000e-01 0.0000000000e+00 0.0000000000e+00
4.4000000000e-01 0.0000000000e+00 0.0000000000e+00
4.5000000000e-01 0.0000000000e+00 0.0000000000e+00
4.6000000000e-01 0.0000000000e+00 0.0000000000e+00
4.7000000000e-01 0.0000000000e+00 0.0000000000e+00
4.8000000000e-01 0.0000000000e+00 0.0000000000e+00
4.9000000000e-01 0.0000000000e+00 0.0000000000e+00
5.0000000000e-01 0.0000000000e+00 0.0000000000e+00
5.1000000000e-01 0.0000000000e+00 0.0000000000e+00
5.2000000000e-01 0.0000000000e+00 0.0000000000e+00
5.3000000000e-01 0.0000000000e+00 0.0000000000e+00
5.4000000000e-01 0.0000000000e+00 0.0000000000e+00
5.5000000000e-01 0.0000000000e+00 0.0000000000e+00
5.6000000000e-01 0.0000000000e+00 0.0000000000e+00
5.7000000000e-01 0.0000000000e+00 0.0000000000e+00
5.8000000000e-01 0.0000000000e+00 0.0000000000e+00
5.9000000000e-01 0.0000000000e+00 0.0000000000e+00
6.0000000000e-01 0.0000000000e+00 0.0000000000e+00
6.1000000000e-01 0.0000000000e+00 0.0000000000e+00
6.2000000000e-01 0.0000000000e+00 0.0000000000e+00
6.3000000000e-01 0.0000000000e+00 0.0000000000e+00
6.4000000000e-01 0.0000000000e+00 0.0000000000e+00
6.5000000000e-01 0.0000000000e+00 0.0000000000e+00
6.6000000000e-01 0.0000000000e+00 0.0000000000e+00
6.7000000000e-01 0.0000000000e+00 0.0000000000e+00
6.8000000000e-01 0.0000000000e+00 0.0000000000e+00
6.9000000000e-01 0.0000000000e+00 0.0000000000e+00
7.0000000000e-01 0.0000000000e+00 0.0000000000e+00
7.1000000000e-01 0.0000000000e+00 0.0000000000e+00
7.2000000000e-01 0.0000000000e+00 0.0000000000e+00
7.3000000000e-01 0.0000000000e+00 0.0000000000e+00
7.4000000000e-01 0.0000000000e+00 0.0000000000e+00
7.5000000000e-01 0.0000000000e+00 0.0000000000e+00
7.6000000000e-01 0.0000000000e+00 0.0000000000e+00
7.7000000000e-01 0.0000000000e+00 0.0000000000e+00
7.8000000000e-01 0.0000000000e+00 0.0000000000e+00
7.9000000000e-01 0.0000000000e+00 0.0000000000e+00
8.0000000000e-01 0.0000000000e+00 0.0000000000e+00
8.1000000000e-01 0.0000000000e+00 0.0000000000e+00
8.2000000000e-01 0.0000000000e+00 0.0000000000e+00
8.3000000000e-01 0.0000000000e+00 0.0000000000e+00
8.4000000000e-01 0.0000000000e+00 0.0000000000e+00
8.5000000000e-01 0.0000000000e+00 0.0000000000e+00
8.6000000000e-01 0.0000000000e+00 0.0000000000e+00
8.7000000000e-01 0.0000000000e+00 0.0000000000e+00
8.8000000000e-01 0.0000000000e+00 0.0000000000e+00
8.9000000000e-01 0.0000000000e+00 0.0000000000e+00
9.0000000000e-01 0.0000000000e+00 0.0000000000e+00
9.1000000000e-01 0.0000000000e+00 0.0000000000e+00
9.2000000000e-01 0.0000000000e+00 0.0000000000e+00
9.3000000000e-01 0.0000000000e+00 0.0000000000e+00
9.4000000000e-01 0.0000000000e+00 0.0000000000e+00
9.5000000000e-01 0.0000000000e+00 0.0000000000e+00
9.6000000000e-01 0.0000000000e+00 0.0000000000e+00
9.7000000000e-01 0.0000000000e+00 0.0000000000e+00
9.8000000000e-01 0.0000000000e+00 0.0000000000e+00
9.9000000000e-01 0.0000000000e+00 0.0000000000e+00
1.0000000000e+00 0.0000000000e+00 0.0000000000e+00
0.0000000000e+00 1.0000000000e-02 0.0000000000e+00
1.0000000000e-02 1.0000000000e-02 0.0000000000e+00
2.0000000000e-02 1.0000000000e-02 0.0000000000e+00
3.0000000000e-02 1.0000000000e-02 0.0000000000e+00
4.0000000000e-02 1.0000000000e-02 0.0000000000e+00
5.0000000000e-02 1.0000000000e-02 0.0000000000e+00
6.0000000000e-02 1.0000000000e-02 0.0000000000e+00
7.0000000000e-02 1.0000000000e-02 0.0000000000e+00
8.0000000000e-02 1.0000000000e-02 0.0000000000e+00
9.0000000000e-02 1.0000000000e-02 0.0000000000e+00
1.0000000000e-01 1.0000000000e-02 0.0000000000e+00
1.1000000000e-01 1.0000000000e-02 0.0000000000e+00
1.2000000000e-01 1.0000000000e-02 0.0000000000e+00
1.3000000000e-01 1.0000000000e-02 0.0000000000e+00
1.4000000000e-01 1.0000000000e-02 0.0000000000e+00
1.5000000000e-01 1.0000000000e-02 0.0000000000e+00
1.6000000000e-01 1.0000000000e-02 0.0000000000e+00
1.7000000000e-01 1.0000000000e-02 0.0000000000e+00
1.8000000000e-01 1.0000000000e-02 0.0000000000e+00
1.9000000000e-01 1.0000000000e-02 0.0000000000e+00
2.0000000000e-01 1.0000000000e-02 0.0000000000e+00
2.1000000000e-01 1.0000000000e-02 0.0000000000e+00
2.2000000000e-01 1.0000000000e-02 0.0000000000e+00
2.3000000000e-01 1.0000000000e-02 0.0000000000e+00
2.4000000000e-01 1.0000000000e-02 0.0000000000e+00
2.5000000000e-01 1.0000000000e-02 0.0000000000e+00
2.6000000000e-01 1.0000000000e-02 0.0000000000e+00
2.7000000000e-01 1.0000000000e-02 0.0000000000e+00
2.8000000000e-01 1.0000000000e-02 0.0000000000e+00
2.9000000000e-01 1.0000000000e-02 0.0000000000e+00
3.0000000000e-01 1.0000000000e-02 0.0000000000e+00
3.1000000000e-01 1.0000000000e-02 0.0000000000e+00
3.2000000000e-01 1.0000000000e-02 0.0000000000e+00
3.3000000000e-01 1.0000000000e-02 0.0000000000e+00
3.4000000000e-01 1.0000000000e-02 0.0000000000e+00
3.5000000000e-01 1.0000000000e-02 0.0000000000e+00
3.6000000000e-01 1.0000000000e-02 0.0000000000e+00
3.7000000000e-01 1.0000000000e-02 0.0000000000e+00
3.8000000000e-01 1.0000000000e-02 0.0000000000e+00
3.9000000000e-01 1.0000000000e-02 0.0000000000e+00
4.0000000000e-01 1.0000000000e-02 0.0000000000e+00
4.1000000000e-01 1.0000000000e-02 0.0000000000e+00
4.2000000000e-01 1.0000000000e-02 0.0000000000e+00
4.3000000000e-01 1.0000000000e-02 0.0000000000e+00
4.4000000000e-01 1.0000000000e-02 0.0000000000e+00
4.5000000000e-01 1.0000000000e-02 0.0000000000e+00
4.6000000000e-01 1.0000000000e-02 0.0000000000e+00
4.7000000000e-01 1.0000000000e-02 0.0000000000e+00
4.8000000000e-01 1.0000000000e-02 0.0000000000e+00
4.9000000000e-01 1.0000000000e-02 0.0000000000e+00
5.0000000000e-01 1.0000000000e-02 0.0000000000e+00
5.1000000000e-01 1.0000000000e-02 0.0000000000e+00
5.2000000000e-01 1.0000000000e-02 0.0000000000e+00
5.3000000000e-01 1.0000000000e-02 0.0000000000e+00
5.4000000000e-01 1.0000000000e-02 0.0000000000e+00
5.5000000000e-01 1.0000000000e-02 0.0000000000e+00
5.6000000000e-01 1.0000000000e-02 0.0000000000e+00
5.7000000000e-01 1.0000000000e-02 0.0000000000e+00
5.8000000000e-01 1.0000000000e-02 0.0000000000e+00
5.9000000000e-01 1.0000000000e-02 0.0000000000e+00
6.0000000000e-01 1.0000000000e-02 0.0000000000e+00
6.1000000000e-01 1.0000000000e-02 0.0000000000e+00
6.2000000000e-01 1.0000000000e-02 0.0000000000e+00
6.3000000000e-01 1.0000000000e-02 0.0000000000e+00
6.4000000000e-01 1.0000000000e-02 0.0000000000e+00
6.5000000000e-01 1.0000000000e-02 0.0000000000e+00
6.6000000000e-01 1.0000000000e-02 0.0000000000e+00
6.7000000000e-01 1.0000000000e-02 0.0000000000e+00
6.8000000000e-01 1.0000000000e-02 0.0000000000e+00
6.9000000000e-01 1.0000000000e-02 0.0000000000e+00
7.0000000000e-01 1.0000000000e-02 0.0000000000e+00
7.1000000000e-01 1.0000000000e-02 0.0000000000e+00
7.2000000000e-01 1.0000000000e-02 0.0000000000e+00
7.3000000000e-01 1.0000000000e-02 0.0000000000e+00
7.4000000000e-01 1.0000000000e-02 0.0000000000e+00
7.5000000000e-01 1.0000000000e-02 0.0000000000e+00
7.6000000000e-01 1.0000000000e-02 0.0000000000e+00
7.7000000000e-01 1.0000000000e-02 0.0000000000e+00
7.8000000000e-01 1.0000000000e-02 0.0000000000e+00
7.9000000000e-01 1.0000000000e-02 0.0000000000e+00
8.0000000000e-01 1.0000000000e-02 0.0000000000e+00
8.1000000000e-01 1.0000000000e-02 0.0000000000e+00
8.2000000000e-01 1.0000000000e-02 0.0000000000e+00
8.3000000000e-01 1.0000000000e-02 0.0000000000e+00
8.4000000000e-01 1.0000000000e-02 0.0000000000e+00
8.5000000000e-01 1.0000000000e-02 0.0000000000e+00
8.6000000000e-01 1.0000000000e-02 0.0000000000e+00
8.7000000000e-01 1.0000000000e-02 0.0000000000e+00
8.8000000000e-01 1.0000000000e-02 0.0000000000e+00
8.9000000000e-01 1.0000000000e-02 0.0000000000e+00
9.0000000000e-01 1.0000000000e-02 0.0000000000e+00
9.1000000000e-01 1.0000000000e-02 0.0000000000e+00
9.2000000000e-01 1.0000000000e-02 0.0000000000e+00
[...]
CELL_DATA 10000

SCALARS massDensity float
LOOKUP_TABLE default
1.2010795618e+00
1.2010886132e+00
1.2011118800e+00
1.2011458210e+00
1.2011901231e+00
1.2012443680e+00
1.2013080356e+00
1.2013805124e+00
1.2014611041e+00
1.2015490468e+00
1.2016435211e+00
1.2017436651e+00
1.2018485884e+00
1.2019573852e+00
1.2020691480e+00
1.2021829795e+00
1.2022980052e+00
1.2024133833e+00
1.2025283153e+00
1.2026420532e+00
1.2027539080e+00
1.2028632539e+00
1.2029695334e+00
1.2030722595e+00
1.2031710178e+00
1.2032654657e+00
1.2033553322e+00
1.2034404147e+00
1.2035205769e+00
1.2035957441e+00
1.2036658990e+00
1.2037310761e+00
1.2037913567e+00
1.2038468630e+00
1.2038977523e+00
1.2039442109e+00
1.2039864490e+00
1.2040246949e+00
1.2040591902e+00
1.2040901848e+00
1.2041179327e+00
1.2041426884e+00
1.2041647030e+00
1.2041842219e+00
1.2042014818e+00
1.2042167091e+00
1.2042301182e+00
1.2042419105e+00
1.2042522731e+00
1.2042613791e+00
1.2042693866e+00
1.2042764394e+00
1.2042826669e+00
1.2042881845e+00
1.2042930946e+00
1.2042974866e+00
1.2043014382e+00
1.2043050158e+00
1.2043082757e+00
1.2043112647e+00
1.2043140207e+00
1.2043165741e+00
1.2043189482e+00
1.2043211602e+00
1.2043232217e+00
1.2043251398e+00
1.2043269176e+00
1.2043285549e+00
1.2043300491e+00
1.2043313957e+00
1.2043325888e+00
1.2043336219e+00
1.2043344885e+00
1.2043351824e+00
1.2043356984e+00
1.2043360327e+00
1.2043361832e+00
1.2043361497e+00
1.2043359345e+00
1.2043355423e+00
1.2043349805e+00
1.2043342590e+00
1.2043333901e+00
1.2043323886e+00
1.2043312713e+00
1.2043300571e+00
1.2043287658e+00
1.2043274189e+00
1.2043260378e+00
1.2043246449e+00
1.2043232621e+00
1.2043219113e+00
1.2043206143e+00
1.2043193928e+00
1.2043182686e+00
1.2043172639e+00
1.2043164015e+00
1.2043157038e+00
1.2043151909e+00
1.2043138704e+00
1.2010886132e+00
1.2010968595e+00
1.2011196350e+00
1.2011531756e+00
1.2011971369e+00
1.2012510793e+00
1.2013144683e+00
1.2013866827e+00
1.2014670229e+00
1.2015547227e+00
1.2016489613e+00
1.2017488770e+00
1.2018535793e+00
1.2019621635e+00
1.2020737223e+00
1.2021873601e+00
1.2023022024e+00
1.2024174090e+00
1.2025321811e+00
1.2026457722e+00
1.2027574927e+00
1.2028667177e+00
1.2029728892e+00
1.2030755209e+00
1.2031741974e+00
1.2032685764e+00
1.2033583857e+00
1.2034434228e+00
1.2035235502e+00
1.2035986925e+00
1.2036688311e+00
1.2037339997e+00
1.2037942780e+00
1.2038497869e+00
1.2039006818e+00
1.2039471477e+00
1.2039893925e+00
1.2040276431e+00
1.2040621385e+00
1.2040931269e+00
1.2041208601e+00
1.2041455904e+00
1.2041675669e+00
1.2041870328e+00
1.2042042231e+00
1.2042193624e+00
1.2042326634e+00
1.2042443262e+00
1.2042545368e+00
1.2042634674e+00
1.2042712756e+00
1.2042781052e+00
1.2042840857e+00
1.2042893333e+00
1.2042939513e+00
1.2042980308e+00
1.2043016513e+00
1.2043048818e+00
1.2043077812e+00
1.2043103995e+00
1.2043127784e+00
1.2043149521e+00
1.2043169481e+00
1.2043187881e+00
1.2043204883e+00
1.2043220604e+00
1.2043235124e+00
1.2043248486e+00
1.2043260710e+00
1.2043271790e+00
1.2043281707e+00
1.2043290430e+00
1.2043297921e+00
1.2043304140e+00
1.2043309051e+00
1.2043312623e+00
1.2043314834e+00
1.2043315676e+00
1.2043315156e+00
1.2043313296e+00
1.2043310139e+00
1.2043305745e+00
1.2043300195e+00
1.2043293585e+00
1.2043286033e+00
1.2043277666e+00
1.2043268630e+00
1.2043259077e+00
1.2043249167e+00
1.2043239066e+00
1.2043228941e+00
1.2043218956e+00
1.2043209278e+00
1.2043200064e+00
1.2043191468e+00
1.2043183632e+00
1.2043176682e+00
1.2043170707e+00
1.2043165737e+00
1.2043152109e+00
1.2011118800e+00
1.2011196350e+00
1.2011420897e+00
1.2011752791e+00
1.2012188490e+00
1.2012723523e+00
1.2013352522e+00
1.2014069262e+00
1.2014866772e+00
1.2015737416e+00
1.2016673038e+00
1.2017665064e+00
1.2018704653e+00
1.2019782811e+00
1.2020890534e+00
1.2022018914e+00
1.2023159277e+00
1.2024303266e+00
1.2025442958e+00
1.2026570925e+00
1.2027680330e+00
1.2028764955e+00
1.2029819267e+00
1.2030838424e+00
1.2031818311e+00
1.2032755517e+00
1.2033647348e+00
1.2034491785e+00
1.2035287469e+00
1.2036033646e+00
1.2036730136e+00
1.2037377269e+00
1.2037975844e+00
1.2038527056e+00
1.2039032454e+00
1.2039493871e+00
1.2039913378e+00
1.2040293221e+00
1.2040635781e+00
1.2040943516e+00
1.2041218930e+00
1.2041464525e+00
1.2041682776e+00
1.2041876095e+00
1.2042046814e+00
1.2042197162e+00
1.2042329251e+00
1.2042445062e+00
1.2042546445e+00
1.2042635105e+00
1.2042712611e+00
1.2042780384e+00
1.2042839715e+00
1.2042891757e+00
1.2042937537e+00
1.2042977960e+00
1.2043013821e+00
1.2043045806e+00
1.2043074506e+00
1.2043100420e+00
1.2043123970e+00
1.2043145499e+00
1.2043165288e+00
1.2043183555e+00
1.2043200470e+00
1.2043216153e+00
1.2043230688e+00
1.2043244123e+00
1.2043256478e+00
1.2043267753e+00
1.2043277927e+00
1.2043286970e+00
1.2043294841e+00
1.2043301499e+00
1.2043306900e+00
1.2043311009e+00
1.2043313797e+00
1.2043315246e+00
1.2043315354e+00
1.2043314134e+00
1.2043311617e+00
1.2043307854e+00
1.2043302914e+00
1.2043296884e+00
1.2043289872e+00
1.2043282000e+00
1.2043273403e+00
1.2043264230e+00
1.2043254637e+00
1.2043244789e+00
1.2043234849e+00
1.2043224984e+00
1.2043215354e+00
1.2043206117e+00
1.2043197415e+00
1.2043189377e+00
1.2043182102e+00
1.2043175650e+00
1.2043170013e+00
1.2043156252e+00
1.2011458210e+00
1.2011531756e+00
1.2011752791e+00
1.2012080267e+00
1.2012510665e+00
1.2013039531e+00
1.2013661509e+00
1.2014370419e+00
1.2015159328e+00
1.2016020676e+00
1.2016946367e+00
1.2017927919e+00
1.2018956565e+00
1.2020023410e+00
1.2021119529e+00
1.2022236114e+00
1.2023364567e+00
1.2024496626e+00
1.2025624436e+00
1.2026740658e+00
1.2027838509e+00
1.2028911846e+00
1.2029955181e+00
1.2030963731e+00
1.2031933413e+00
1.2032860860e+00
1.2033743396e+00
1.2034579032e+00
1.2035366414e+00
1.2036104804e+00
1.2036794019e+00
1.2037434393e+00
1.2038026709e+00
1.2038572159e+00
1.2039072270e+00
1.2039528862e+00
1.2039943981e+00
1.2040319854e+00
1.2040658834e+00
1.2040963358e+00
1.2041235899e+00
1.2041478935e+00
1.2041694913e+00
1.2041886221e+00
1.2042055162e+00
1.2042203944e+00
1.2042334652e+00
1.2042449249e+00
1.2042549560e+00
1.2042637274e+00
1.2042713941e+00
1.2042780969e+00
1.2042839634e+00
1.2042891077e+00
1.2042936316e+00
1.2042976250e+00
1.2043011666e+00
1.2043043248e+00
1.2043071583e+00
1.2043097171e+00
1.2043120433e+00
1.2043141714e+00
1.2043161297e+00
1.2043179405e+00
1.2043196208e+00
1.2043211834e+00
1.2043226367e+00
1.2043239859e+00
1.2043252333e+00
1.2043263790e+00
1.2043274210e+00
1.2043283561e+00
1.2043291801e+00
1.2043298885e+00
1.2043304764e+00
1.2043309397e+00
1.2043312746e+00
1.2043314787e+00
1.2043315506e+00
1.2043314908e+00
1.2043313013e+00
1.2043309861e+00
1.2043305511e+00
1.2043300041e+00
1.2043293548e+00
1.2043286147e+00
1.2043277969e+00
1.2043269154e+00
1.2043259858e+00
1.2043250241e+00
1.2043240465e+00
1.2043230696e+00
1.2043221095e+00
1.2043211814e+00
1.2043202993e+00
1.2043194752e+00
1.2043187184e+00
1.2043180343e+00
1.2043174228e+00
1.2043160813e+00
1.2011901231e+00
1.2011971369e+00
1.2012188490e+00
1.2012510665e+00
1.2012934456e+00
1.2013455463e+00
1.2014068400e+00
1.2014767147e+00
1.2015544864e+00
1.2016394070e+00
1.2017306784e+00
1.2018274618e+00
1.2019288936e+00
1.2020340944e+00
1.2021421850e+00
1.2022522951e+00
1.2023635776e+00
1.2024752161e+00
1.2025864371e+00
1.2026965151e+00
1.2028047822e+00
1.2029106312e+00
1.2030135218e+00
1.2031129812e+00
1.2032086075e+00
1.2033000676e+00
1.2033870987e+00
1.2034695035e+00
1.2035471495e+00
1.2036199632e+00
1.2036879273e+00
1.2037510741e+00
1.2038094818e+00
1.2038632672e+00
1.2039125818e+00
1.2039576046e+00
1.2039985380e+00
1.2040356013e+00
1.2040690268e+00
1.2040990547e+00
1.2041259291e+00
1.2041498941e+00
1.2041711913e+00
1.2041900557e+00
1.2042067147e+00
1.2042213855e+00
1.2042342741e+00
1.2042455734e+00
1.2042554638e+00
1.2042641114e+00
1.2042716690e+00
1.2042782756e+00
1.2042840568e+00
1.2042891253e+00
1.2042935818e+00
1.2042975148e+00
1.2043010024e+00
1.2043041121e+00
1.2043069025e+00
1.2043094231e+00
1.2043117158e+00
1.2043138153e+00
1.2043157498e+00
1.2043175420e+00
1.2043192092e+00
1.2043207641e+00
1.2043222157e+00
1.2043235693e+00
1.2043248275e+00
1.2043259903e+00
1.2043270558e+00
1.2043280206e+00
1.2043288804e+00
1.2043296302e+00
1.2043302647e+00
1.2043307790e+00
1.2043311687e+00
1.2043314304e+00
1.2043315619e+00
1.2043315625e+00
1.2043314334e+00
1.2043311773e+00
1.2043307993e+00
1.2043303062e+00
1.2043297068e+00
1.2043290119e+00
1.2043282337e+00
1.2043273862e+00
1.2043264842e+00
1.2043255436e+00
1.2043245807e+00
1.2043236117e+00
1.2043226529e+00
1.2043217193e+00
1.2043208251e+00
1.2043199821e+00
1.2043191998e+00
1.2043184843e+00
1.2043178374e+00
1.2043165561e+00
1.2012443680e+00
1.2012510793e+00
1.2012723523e+00
1.2013039531e+00
1.2013455463e+00
1.2013967018e+00
1.2014568989e+00
1.2015255368e+00
1.2016019412e+00
1.2016853773e+00
1.2017750587e+00
1.2018701617e+00
1.2019698355e+00
1.2020732167e+00
1.2021794393e+00
1.2022876490e+00
1.2023970115e+00
1.2025067254e+00
1.2026160288e+00
1.2027242098e+00
1.2028306104e+00
1.2029346349e+00
1.2030357510e+00
1.2031334949e+00
1.2032274704e+00
1.2033173513e+00
1.2034028782e+00
1.2034838581e+00
1.2035601601e+00
1.2036317128e+00
1.2036984985e+00
1.2037605499e+00
1.2038179432e+00
1.2038707941e+00
1.2039192509e+00
1.2039634904e+00
1.2040037109e+00
1.2040401287e+00
1.2040729717e+00
1.2041024764e+00
1.2041288823e+00
1.2041524298e+00
1.2041733558e+00
1.2041918915e+00
1.2042082602e+00
1.2042226754e+00
1.2042353391e+00
1.2042464412e+00
1.2042561584e+00
1.2042646542e+00
1.2042720786e+00
1.2042785682e+00
1.2042842464e+00
1.2042892241e+00
1.2042936001e+00
1.2042974620e+00
1.2043008863e+00
1.2043039401e+00
1.2043066809e+00
1.2043091580e+00
1.2043114129e+00
1.2043134802e+00
1.2043153882e+00
1.2043171594e+00
1.2043188113e+00
1.2043203570e+00
1.2043218055e+00
1.2043231624e+00
1.2043244302e+00
1.2043256091e+00
1.2043266971e+00
1.2043276908e+00
1.2043285853e+00
1.2043293754e+00
1.2043300553e+00
1.2043306194e+00
1.2043310625e+00
1.2043313804e+00
1.2043315698e+00
1.2043316292e+00
1.2043315586e+00
1.2043313598e+00
1.2043310368e+00
1.2043305956e+00
1.2043300441e+00
1.2043293923e+00
1.2043286519e+00
1.2043278363e+00
1.2043269601e+00
1.2043260389e+00
1.2043250890e+00
1.2043241266e+00
1.2043231680e+00
1.2043222286e+00
1.2043213226e+00
1.2043204623e+00
1.2043196580e+00
1.2043189166e+00
1.2043182423e+00
1.2043170339e+00
1.2013080356e+00
1.2013144683e+00
1.2013352522e+00
1.2013661509e+00
1.2014068400e+00
1.2014568989e+00
1.2015158193e+00
1.2015830116e+00
1.2016578163e+00
1.2017395117e+00
1.2018273286e+00
1.2019204582e+00
1.2020180681e+00
1.2021193106e+00
1.2022233388e+00
1.2023293137e+00
1.2024364195e+00
1.2025438694e+00
1.2026509182e+00
1.2027568670e+00
1.2028610726e+00
1.2029629498e+00
1.2030619785e+00
1.2031577031e+00
1.2032497366e+00
1.2033377584e+00
1.2034215155e+00
1.2035008179e+00
1.2035755383e+00
1.2036456062e+00
1.2037110051e+00
1.2037717665e+00
1.2038279658e+00
1.2038797159e+00
1.2039271630e+00
1.2039704795e+00
1.2040098605e+00
1.2040455175e+00
1.2040776742e+00
1.2041065619e+00
1.2041324157e+00
1.2041554706e+00
1.2041759589e+00
1.2041941069e+00
1.2042101332e+00
1.2042242468e+00
1.2042366455e+00
1.2042475151e+00
1.2042570288e+00
1.2042653464e+00
1.2042726148e+00
1.2042789678e+00
1.2042845262e+00
1.2042893987e+00
1.2042936823e+00
1.2042974627e+00
1.2043008153e+00
1.2043038059e+00
1.2043064912e+00
1.2043089199e+00
1.2043111330e+00
1.2043131648e+00
1.2043150435e+00
1.2043167916e+00
1.2043184266e+00
1.2043199617e+00
1.2043214059e+00
1.2043227649e+00
1.2043240415e+00
1.2043252356e+00
1.2043263454e+00
1.2043273669e+00
1.2043282954e+00
1.2043291248e+00
1.2043298490e+00
1.2043304617e+00
1.2043309569e+00
1.2043313294e+00
1.2043315752e+00
1.2043316917e+00
1.2043316778e+00
1.2043315345e+00
1.2043312646e+00
1.2043308733e+00
1.2043303677e+00
1.2043297570e+00
1.2043290525e+00
1.2043282669e+00
1.2043274148e+00
1.2043265114e+00
1.2043255730e+00
1.2043246161e+00
1.2043236570e+00
1.2043227115e+00
1.2043217942e+00
1.2043209182e+00
1.2043200943e+00
1.2043193312e+00
1.2043186344e+00
1.2043175041e+00
1.2013805124e+00
1.2013866827e+00
1.2014069262e+00
1.2014370419e+00
1.2014767147e+00
1.2015255368e+00
1.2015830116e+00
1.2016485651e+00
1.2017215522e+00
1.2018012697e+00
1.2018869648e+00
1.2019778491e+00
1.2020731082e+00
1.2021719159e+00
1.2022734431e+00
1.2023768726e+00
1.2024814058e+00
1.2025862760e+00
1.2026907541e+00
1.2027941591e+00
1.2028958613e+00
1.2029952911e+00
1.2030919389e+00
1.2031853616e+00
1.2032751799e+00
1.2033610822e+00
1.2034428203e+00
1.2035202100e+00
1.2035931263e+00
1.2036615011e+00
1.2037253178e+00
1.2037846081e+00
1.2038394451e+00
1.2038899399e+00
1.2039362344e+00
1.2039784981e+00
1.2040169210e+00
1.2040517099e+00
1.2040830830e+00
1.2041112666e+00
1.2041364897e+00
1.2041589822e+00
1.2041789705e+00
1.2041966756e+00
1.2042123108e+00
1.2042260801e+00
1.2042381762e+00
1.2042487807e+00
1.2042580623e+00
1.2042661770e+00
1.2042732682e+00
1.2042794662e+00
1.2042848893e+00
1.2042896434e+00
1.2042938232e+00
1.2042975127e+00
1.2043007856e+00
1.2043037064e+00
1.2043063308e+00
1.2043087066e+00
1.2043108743e+00
1.2043128678e+00
1.2043147148e+00
1.2043164379e+00
1.2043180544e+00
1.2043195775e+00
1.2043210165e+00
1.2043223769e+00
1.2043236614e+00
1.2043248701e+00
1.2043260008e+00
1.2043270495e+00
1.2043280110e+00
1.2043288789e+00
1.2043296464e+00
1.2043303065e+00
1.2043308525e+00
1.2043312783e+00
1.2043315790e+00
1.2043317509e+00
1.2043317920e+00
1.2043317022e+00
1.2043314836e+00
1.2043311402e+00
1.2043306785e+00
1.2043301070e+00
1.2043294364e+00
1.2043286792e+00
1.2043278493e+00
1.2043269622e+00
1.2043260341e+00
1.2043250816e+00
1.2043241215e+00
1.2043231697e+00
1.2043222416e+00
1.2043213509e+00
1.2043205096e+00
1.2043197272e+00
1.2043190113e+00
1.2043179595e+00
1.2014611041e+00
1.2014670229e+00
1.2014866772e+00
1.2015159328e+00
1.2015544864e+00
1.2016019412e+00
1.2016578163e+00
1.2017215522e+00
1.2017925230e+00
1.2018700430e+00
1.2019533811e+00
1.2020417688e+00
1.2021344147e+00
1.2022305132e+00
1.2023292593e+00
1.2024298558e+00
1.2025315271e+00
1.2026335256e+00
1.2027351434e+00
1.2028357160e+00
1.2029346325e+00
1.2030313369e+00
1.2031253351e+00
1.2032161942e+00
1.2033035471e+00
1.2033870889e+00
1.2034665798e+00
1.2035418395e+00
1.2036127474e+00
1.2036792366e+00
1.2037412921e+00
1.2037989439e+00
1.2038522643e+00
1.2039013607e+00
1.2039463722e+00
1.2039874630e+00
1.2040248188e+00
1.2040586405e+00
1.2040891410e+00
1.2041165397e+00
1.2041410604e+00
1.2041629260e+00
1.2041823571e+00
1.2041995686e+00
1.2042147680e+00
1.2042281533e+00
1.2042399125e+00
1.2042502217e+00
1.2042592450e+00
1.2042671341e+00
1.2042740285e+00
1.2042800549e+00
1.2042853282e+00
1.2042899517e+00
1.2042940175e+00
1.2042976074e+00
1.2043007935e+00
1.2043036385e+00
1.2043061971e+00
1.2043085160e+00
1.2043106350e+00
1.2043125875e+00
1.2043144008e+00
1.2043160972e+00
1.2043176940e+00
1.2043192043e+00
1.2043206371e+00
1.2043219981e+00
1.2043232900e+00
1.2043245127e+00
1.2043256638e+00
1.2043267391e+00
1.2043277328e+00
1.2043286384e+00
1.2043294482e+00
1.2043301546e+00
1.2043307502e+00
1.2043312279e+00
1.2043315820e+00
1.2043318077e+00
1.2043319020e+00
1.2043318640e+00
1.2043316947e+00
1.2043313973e+00
1.2043309776e+00
1.2043304434e+00
1.2043298049e+00
1.2043290741e+00
1.2043282649e+00
1.2043273927e+00
1.2043264736e+00
1.2043255245e+00
1.2043245626e+00
1.2043236044e+00
1.2043226657e+00
1.2043217612e+00
1.2043209036e+00
1.2043201038e+00
1.2043193705e+00
1.2043183947e+00
1.2015490468e+00
1.2015547227e+00
1.2015737416e+00
1.2016020676e+00
1.2016394070e+00
1.2016853773e+00
1.2017395117e+00
1.2018012697e+00
1.2018700430e+00
1.2019451684e+00
1.2020259354e+00
1.2021116003e+00
1.2022013940e+00
1.2022945368e+00
1.2023902462e+00
1.2024877508e+00
1.2025862967e+00
1.2026851606e+00
1.2027836540e+00
1.2028811345e+00
1.2029770079e+00
1.2030707368e+00
1.2031618403e+00
1.2032499005e+00
1.2033345598e+00
1.2034155243e+00
1.2034925600e+00
1.2035654937e+00
1.2036342075e+00
1.2036986377e+00
1.2037587690e+00
1.2038146316e+00
1.2038662950e+00
1.2039138642e+00
1.2039574738e+00
1.2039972837e+00
1.2040334735e+00
1.2040662387e+00
1.2040957853e+00
1.2041223268e+00
1.2041460794e+00
1.2041672600e+00
1.2041860821e+00
1.2042027541e+00
1.2042174770e+00
1.2042304430e+00
1.2042418339e+00
1.2042518205e+00
1.2042605618e+00
1.2042682050e+00
1.2042748848e+00
1.2042807244e+00
1.2042858350e+00
1.2042903169e+00
1.2042942595e+00
1.2042977421e+00
1.2043008348e+00
1.2043035988e+00
1.2043060872e+00
1.2043083457e+00
1.2043104133e+00
1.2043123225e+00
1.2043141004e+00
1.2043157689e+00
1.2043173449e+00
1.2043188415e+00
1.2043202675e+00
1.2043216287e+00
1.2043229275e+00
1.2043241637e+00
1.2043253347e+00
1.2043264360e+00
1.2043274615e+00
1.2043284039e+00
1.2043292552e+00
1.2043300070e+00
1.2043306509e+00
1.2043311793e+00
1.2043315852e+00
1.2043318631e+00
1.2043320090e+00
1.2043320209e+00
1.2043318990e+00
1.2043316458e+00
1.2043312661e+00
1.2043307672e+00
1.2043301589e+00
1.2043294528e+00
1.2043286627e+00
1.2043278037e+00
1.2043268923e+00
1.2043259457e+00
1.2043249813e+00
1.2043240162e+00
1.2043230671e+00
1.2043221491e+00
1.2043212760e+00
1.2043204598e+00
1.2043197102e+00
1.2043188057e+00
1.2016435211e+00
1.2016489613e+00
1.2016673038e+00
1.2016946367e+00
1.2017306784e+00
1.2017750587e+00
1.2018273286e+00
1.2018869648e+00
1.2019533811e+00
1.2020259354e+00
1.2021039427e+00
1.2021866825e+00
1.2022734132e+00
1.2023633795e+00
1.2024558269e+00
1.2025500079e+00
1.2026451958e+00
1.2027406895e+00
1.2028358257e+00
1.2029299816e+00
1.2030225848e+00
1.2031131141e+00
1.2032011068e+00
1.2032861572e+00
1.2033679216e+00
1.2034461147e+00
1.2035205118e+00
1.2035909444e+00
1.2036573000e+00
1.2037195162e+00
1.2037775794e+00
1.2038315181e+00
1.2038814005e+00
1.2039273276e+00
1.2039694303e+00
1.2040078627e+00
1.2040427992e+00
1.2040744282e+00
1.2041029494e+00
1.2041285688e+00
1.2041514958e+00
1.2041719395e+00
1.2041901067e+00
1.2042061983e+00
1.2042204089e+00
1.2042329237e+00
1.2042439187e+00
1.2042535585e+00
1.2042619969e+00
1.2042693757e+00
1.2042758255e+00
1.2042814648e+00
1.2042864014e+00
1.2042907320e+00
1.2042945432e+00
1.2042979117e+00
1.2043009055e+00
1.2043035838e+00
1.2043059983e+00
1.2043081934e+00
1.2043102072e+00
1.2043120714e+00
1.2043138125e+00
1.2043154519e+00
1.2043170064e+00
1.2043184887e+00
1.2043199077e+00
1.2043212687e+00
1.2043225742e+00
1.2043238236e+00
1.2043250142e+00
1.2043261411e+00
1.2043271977e+00
1.2043281764e+00
1.2043290683e+00
1.2043298644e+00
1.2043305557e+00
1.2043311334e+00
1.2043315898e+00
1.2043319183e+00
1.2043321140e+00
1.2043321741e+00
1.2043320977e+00
1.2043318866e+00
1.2043315450e+00
1.2043310795e+00
1.2043304995e+00
1.2043298163e+00
1.2043290434e+00
1.2043281963e+00
1.2043272913e+00
1.2043263461e+00
1.2043253783e+00
1.2043244059e+00
1.2043234459e+00
1.2043225146e+00
1.2043216264e+00
1.2043207942e+00
1.2043200287e+00
1.2043191894e+00
1.2017436651e+00
1.2017488770e+00
1.2017665064e+00
1.2017927919e+00
1.2018274618e+00
1.2018701617e+00
1.2019204582e+00
1.2019778491e+00
1.2020417688e+00
1.2021116003e+00
1.2021866825e+00
1.2022663231e+00
1.2023498061e+00
1.2024364059e+00
1.2025253937e+00
1.2026160516e+00
1.2027076777e+00
1.2027995985e+00
1.2028911734e+00
1.2029818044e+00
1.2030709383e+00
1.2031580751e+00
1.2032427676e+00
1.2033246267e+00
1.2034033201e+00
1.2034785744e+00
1.2035501723e+00
1.2036179530e+00
1.2036818069e+00
1.2037416756e+00
1.2037975449e+00
1.2038494437e+00
1.2038974368e+00
1.2039416228e+00
1.2039821270e+00
1.2040190988e+00
1.2040527056e+00
1.2040831298e+00
1.2041105631e+00
1.2041352046e+00
1.2041572556e+00
1.2041769178e+00
1.2041943900e+00
1.2042098661e+00
1.2042235330e+00
1.2042355694e+00
1.2042461442e+00
1.2042554164e+00
1.2042635336e+00
1.2042706325e+00
1.2042768385e+00
1.2042822661e+00
1.2042870187e+00
1.2042911897e+00
1.2042948625e+00
1.2042981111e+00
1.2043010011e+00
1.2043035899e+00
1.2043059274e+00
1.2043080568e+00
1.2043100148e+00
1.2043118326e+00
1.2043135358e+00
1.2043151455e+00
1.2043166780e+00
1.2043181458e+00
1.2043195574e+00
1.2043209182e+00
1.2043222302e+00
1.2043234927e+00
1.2043247027e+00
1.2043258549e+00