# vtk DataFile Version 2.0
Blank
ASCII
DATASET STRUCTURED_GRID
DIMENSIONS 101 101 2
POINTS 20402 float
0.0000000000e+00 0.0000000000e+00 0.0000000000e+00
1.0000000000e-02 0.0000000000e+00 0.0000000000e+00
2.0000000000e-02 0.0000000000e+00 0.0000000000e+00
3.0000000000e-02 0.0000000000e+00 0.0000000000e+00
4.0000000000e-02 0.0000000000e+00 0.0000000000e+00
5.0000000000e-02 0.0000000000e+00 0.0000000000e+00
6.0000000000e-02 0.0000000000e+00 0.0000000000e+00
7.0000000000e-02 0.0000000000e+00 0.0000000000e+00
8.0000000000e-02 0.0000000000e+00 0.0000000000e+00
9.0000000000e-02 0.0000000000e+00 0.0000000000e+00
1.0000000000e-01 0.0000000000e+00 0.0000000000e+00
1.1000000000e-01 0.0000000000e+00 0.0000000000e+00
1.2000000000e-01 0.0000000000e+00 0.0000000000e+00
1.3000000000e-01 0.0000000000e+00 0.0000000000e+00
1.4000000000e-01 0.0000000000e+00 0.0000000000e+00
1.5000000000e-01 0.0000000000e+00 0.0000000000e+00
1.6000000000e-01 0.0000000000e+00 0.0000000000e+00
1.7000000000e-01 0.0000000000e+00 0.0000000000e+00
1.8000000000e-01 0.0000000000e+00 0.0000000000e+00
1.9000000000e-01 0.0000000000e+00 0.0000000000e+00
2.0000000000e-01 0.0000000000e+00 0.0000000000e+00
2.1000000000e-01 0.0000000000e+00 0.0000000000e+00
2.2000000000e-01 0.0000000000e+00 0.0000000000e+00
2.3000000000e-01 0.0000000000e+00 0.0000000000e+00
2.4000000000e-01 0.0000000000e+00 0.0000000000e+00
2.5000000000e-01 0.0000000000e+00 0.0000000000e+00
2.6000000000e-01 0.0000000000e+00 0.0000000000e+00
2.7000000000e-01 0.0000000000e+00 0.0000000000e+00
2.8000000000e-01 0.0000000000e+00 0.0000000000e+00
2.9000000000e-01 0.0000000000e+00 0.0000000000e+00
3.0000000000e-01 0.0000000000e+00 0.0000000000e+00
3.1000000000e-01 0.0000000000e+00 0.0000000000e+00
3.2000000000e-01 0.0000000000e+00 0.0000000000e+00
3.3000000000e-01 0.0000000000e+00 0.0000000000e+00
3.4000000000e-01 0.0000000000e+00 0.0000000000e+00
3.5000000000e-01 0.0000000000e+00 0.0000000000e+00
3.6000000000e-01 0.0000000000e+00 0.0000000000e+00
3.7000000000e-01 0.0000000000e+00 0.0000000000e+00
3.8000000000e-01 0.0000000000e+00 0.0000000000e+00
3.9000000000e-01 0.0000000000e+00 0.0000000000e+00
4.0000000000e-01 0.0000000000e+00 0.0000000000e+00
4.1000000000e-01 0.0000000000e+00 0.0000000000e+00
4.2000000000e-01 0.0000000000e+00 0.0000000000e+00
4.3000000000e-01 0.0000000000e+00 0.0000000000e+00
4.4000000000e-01 0.0000000000e+00 0.0000000000e+00
4.5000000000e-01 0.0000000000e+00 0.0000000000e+00
4.6000000000e-01 0.0000000000e+00 0.0000000000e+00
4.7000000000e-01 0.0000000000e+00 0.0000000000e+00
4.8000000000e-01 0.0000000000e+00 0.0000000000e+00
4.9000000000e-01 0.0000000000e+00 0.0000000000e+00
5.0000000000e-01 0.0000000000e+00 0.0000000000e+00
5.1000000000e-01 0.0000000000e+00 0.0000000000e+00
5.2000000000e-01 0.0000000000e+00 0.0000000000e+00
5.3000000000e-01 0.0000000000e+00 0.0000000000e+00
5.4000000000e-01 0.0000000000e+00 0.0000000000e+00
5.5000000000e-01 0.0000000000e+00 0.0000000000e+00
5.6000000000e-01 0.0000000000e+00 0.0000000000e+00
5.7000000000e-01 0.0000000000e+00 0.0000000000e+00
5.8000000000e-01 0.0000000000e+00 0.0000000000e+00
5.9000000000e-01 0.0000000000e+00 0.0000000000e+00
6.0000000000e-01 0.0000000000e+00 0.0000000000e+00
6.1000000000e-01 0.0000000000e+00 0.0000000000e+00
6.2000000000e-01 0.0000000000e+00 0.0000000000e+00
6.3000000000e-01 0.0000000000e+00 0.0000000000e+00
6.4000000000e-01 0.0000000000e+00 0.0000000000e+00
6.5000000000e-01 0.0000000000e+00 0.0000000000e+00
6.6000000000e-01 0.0000000000e+00 0.0000000000e+00
6.7000000000e-01 0.0000000000e+00 0.0000000000e+00
6.8000000000e-01 0.0000000000e+00 0.0000000000e+00
6.9000000000e-01 0.0000000000e+00 0.0000000000e+00
7.0000000000e-01 0.0000000000e+00 0.0000000000e+00
7.1000000000e-01 0.0000000000e+00 0.0000000000e+00
7.2000000000e-01 0.0000000000e+00 0.0000000000e+00
7.3000000000e-01 0.0000000000e+00 0.0000000000e+00
7.4000000000e-01 0.0000000000e+00 0.0000000000e+00
7.5000000000e-01 0.0000000000e+00 0.0000000000e+00
7.6000000000e-01 0.0000000000e+00 0.0000000000e+00
7.7000000000e-01 0.0000000000e+00 0.0000000000e+00
7.8000000000e-01 0.0000000000e+00 0.0000000000e+00
7.9000000000e-01 0.0000000000e+00 0.0000000000e+00
8.0000000000e-01 0.0000000000e+00 0.0000000000e+00
8.1000000000e-01 0.0000000000e+00 0.0000000000e+00
8.2000000000e-01 0.0000000000e+00 0.0000000000e+00
8.3000000000e-01 0.0000000000e+00 0.0000000000e+00
8.4000000000e-01 0.0000000000e+00 0.0000000000e+00
8.5000000000e-01 0.0000000000e+00 0.0000000000e+00
8.6000000000e-01 0.0000000000e+00 0.0000000000e+00
8.7000000000e-01 0.0000000000e+00 0.0000000000e+00
8.8000000000e-01 0.0000000000e+00 0.0000000000e+00
8.9000000000e-01 0.0000000000e+00 0.0000000000e+00
9.0000000000e-01 0.0000000000e+00 0.0000000000e+00
9.1000000000e-01 0.0000000000e+00 0.0000000000e+00
9.2000000000e-01 0.0000000000e+00 0.0000000000e+00
9.3000000000e-01 0.0000000000e+00 0.0000000000e+00
9.4000000000e-01 0.0000000000e+00 0.0000000000e+00
9.5000000000e-01 0.0000000000e+00 0.0000000000e+00
9.6000000000e-01 0.0000000000e+00 0.0000000000e+00
9.7000000000e-01 0.0000000000e+00 0.0000000000e+00
9.8000000000e-01 0.0000000000e+00 0.0000000000e+00
9.9000000000e-01 0.0000000000e+00 0.0000000000e+00
1.0000000000e+00 0.0000000000e+00 0.0000000000e+00
0.0000000000e+00 1.0000000000e-02 0.0000000000e+00
1.0000000000e-02 1.0000000000e-02 0.0000000000e+00
2.0000000000e-02 1.0000000000e-02 0.0000000000e+00
3.0000000000e-02 1.0000000000e-02 0.0000000000e+00
4.0000000000e-02 1.0000000000e-02 0.0000000000e+00
5.0000000000e-02 1.0000000000e-02 0.0000000000e+00
6.0000000000e-02 1.0000000000e-02 0.0000000000e+00
7.0000000000e-02 1.0000000000e-02 0.0000000000e+00
8.0000000000e-02 1.0000000000e-02 0.0000000000e+00
9.0000000000e-02 1.0000000000e-02 0.0000000000e+00
1.0000000000e-01 1.0000000000e-02 0.0000000000e+00
1.1000000000e-01 1.0000000000e-02 0.0000000000e+00
1.2000000000e-01 1.0000000000e-02 0.0000000000e+00
1.3000000000e-01 1.0000000000e-02 0.0000000000e+00
1.4000000000e-01 1.0000000000e-02 0.0000000000e+00
1.5000000000e-01 1.0000000000e-02 0.0000000000e+00
1.6000000000e-01 1.0000000000e-02 0.0000000000e+00
1.7000000000e-01 1.0000000000e-02 0.0000000000e+00
1.8000000000e-01 1.0000000000e-02 0.0000000000e+00
1.9000000000e-01 1.0000000000e-02 0.0000000000e+00
2.0000000000e-01 1.0000000000e-02 0.0000000000e+00
2.1000000000e-01 1.0000000000e-02 0.0000000000e+00
2.2000000000e-01 1.0000000000e-02 0.0000000000e+00
2.3000000000e-01 1.0000000000e-02 0.0000000000e+00
2.4000000000e-01 1.0000000000e-02 0.0000000000e+00
2.5000000000e-01 1.0000000000e-02 0.0000000000e+00
2.6000000000e-01 1.0000000000e-02 0.0000000000e+00
2.7000000000e-01 1.0000000000e-02 0.0000000000e+00
2.8000000000e-01 1.0000000000e-02 0.0000000000e+00
2.9000000000e-01 1.0000000000e-02 0.0000000000e+00
3.0000000000e-01 1.0000000000e-02 0.0000000000e+00
3.1000000000e-01 1.0000000000e-02 0.0000000000e+00
3.2000000000e-01 1.0000000000e-02 0.0000000000e+00
3.3000000000e-01 1.0000000000e-02 0.0000000000e+00
3.4000000000e-01 1.0000000000e-02 0.0000000000e+00
3.5000000000e-01 1.0000000000e-02 0.0000000000e+00
3.6000000000e-01 1.0000000000e-02 0.0000000000e+00
3.7000000000e-01 1.0000000000e-02 0.0000000000e+00
3.8000000000e-01 1.0000000000e-02 0.0000000000e+00
3.9000000000e-01 1.0000000000e-02 0.0000000000e+00
4.0000000000e-01 1.0000000000e-02 0.0000000000e+00
4.1000000000e-01 1.0000000000e-02 0.0000000000e+00
4.2000000000e-01 1.0000000000e-02 0.0000000000e+00
4.3000000000e-01 1.0000000000e-02 0.0000000000e+00
4.4000000000e-01 1.0000000000e-02 0.0000000000e+00
4.5000000000e-01 1.0000000000e-02 0.0000000000e+00
4.6000000000e-01 1.0000000000e-02 0.0000000000e+00
4.7000000000e-01 1.0000000000e-02 0.0000000000e+00
4.8000000000e-01 1.0000000000e-02 0.0000000000e+00
4.9000000000e-01 1.0000000000e-02 0.0000000000e+00
5.0000000000e-01 1.0000000000e-02 0.0000000000e+00
5.1000000000e-01 1.0000000000e-02 0.0000000000e+00
5.2000000000e-01 1.0000000000e-02 0.0000000000e+00
5.3000000000e-01 1.0000000000e-02 0.0000000000e+00
5.4000000000e-01 1.0000000000e-02 0.0000000000e+00
5.5000000000e-01 1.0000000000e-02 0.0000000000e+00
5.6000000000e-01 1.0000000000e-02 0.0000000000e+00
5.7000000000e-01 1.0000000000e-02 0.0000000000e+00
5.8000000000e-01 1.0000000000e-02 0.0000000000e+00
5.9000000000e-01 1.0000000000e-02 0.0000000000e+00
6.0000000000e-01 1.0000000000e-02 0.0000000000e+00
6.1000000000e-01 1.0000000000e-02 0.0000000000e+00
6.2000000000e-01 1.0000000000e-02 0.0000000000e+00
6.3000000000e-01 1.0000000000e-02 0.0000000000e+00
6.4000000000e-01 1.0000000000e-02 0.0000000000e+00
6.5000000000e-01 1.0000000000e-02 0.0000000000e+00
6.6000000000e-01 1.0000000000e-02 0.0000000000e+00
6.7000000000e-01 1.0000000000e-02 0.0000000000e+00
6.8000000000e-01 1.0000000000e-02 0.0000000000e+00
6.9000000000e-01 1.0000000000e-02 0.0000000000e+00
7.0000000000e-01 1.0000000000e-02 0.0000000000e+00
7.1000000000e-01 1.0000000000e-02 0.0000000000e+00
7.2000000000e-01 1.0000000000e-02 0.0000000000e+00
7.3000000000e-01 1.0000000000e-02 0.0000000000e+00
7.4000000000e-01 1.0000000000e-02 0.0000000000e+00
7.5000000000e-01 1.0000000000e-02 0.0000000000e+00
7.6000000000e-01 1.0000000000e-02 0.0000000000e+00
7.7000000000e-01 1.0000000000e-02 0.0000000000e+00
7.8000000000e-01 1.0000000000e-02 0.0000000000e+00
7.9000000000e-01 1.0000000000e-02 0.0000000000e+00
8.0000000000e-01 1.0000000000e-02 0.0000000000e+00
8.1000000000e-01 1.0000000000e-02 0.0000000000e+00
8.2000000000e-01 1.0000000000e-02 0.0000000000e+00
8.3000000000e-01 1.0000000000e-02 0.0000000000e+00
8.4000000000e-01 1.0000000000e-02 0.0000000000e+00
8.5000000000e-01 1.0000000000e-02 0.0000000000e+00
8.6000000000e-01 1.0000000000e-02 0.0000000000e+00
8.7000000000e-01 1.0000000000e-02 0.0000000000e+00
8.8000000000e-01 1.0000000000e-02 0.0000000000e+00
8.9000000000e-01 1.0000000000e-02 0.0000000000e+00
9.0000000000e-01 1.0000000000e-02 0.0000000000e+00
9.1000000000e-01 1.0000000000e-02 0.0000000000e+00
9.2000000000e-01 1.0000000000e-02 0.0000000000e+00
[...]
CELL_DATA 10000

SCALARS massDensity float
LOOKUP_TABLE default
1.1993716570e+00
1.1994000564e+00
1.1994588169e+00
1.1995432460e+00
1.1996521050e+00
1.1997837875e+00
1.1999363485e+00
1.2001075574e+00
1.2002949500e+00
1.2004958936e+00
1.2007076437e+00
1.2009274123e+00
1.2011524222e+00
1.2013799704e+00
1.2016074748e+00
1.2018325260e+00
1.2020529208e+00
1.2022666991e+00
1.2024721605e+00
1.2026678838e+00
1.2028527276e+00
1.2030258325e+00
1.2031866075e+00
1.2033347186e+00
1.2034700641e+00
1.2035927540e+00
1.2037030792e+00
1.2038014864e+00
1.2038885454e+00
1.2039649246e+00
1.2040313597e+00
1.2040886328e+00
1.2041375460e+00
1.2041789053e+00
1.2042135007e+00
1.2042420958e+00
1.2042654140e+00
1.2042841341e+00
1.2042988815e+00
1.2043102284e+00
1.2043186900e+00
1.2043247275e+00
1.2043287472e+00
1.2043311060e+00
1.2043321120e+00
1.2043320313e+00
1.2043310889e+00
1.2043294762e+00
1.2043273519e+00
1.2043248488e+00
1.2043220751e+00
1.2043191195e+00
1.2043160532e+00
1.2043129335e+00
1.2043098052e+00
1.2043067039e+00
1.2043036565e+00
1.2043006840e+00
1.2042978014e+00
1.2042950203e+00
1.2042923483e+00
1.2042897909e+00
1.2042873511e+00
1.2042850307e+00
1.2042828298e+00
1.2042807480e+00
1.2042787836e+00
1.2042769348e+00
1.2042751988e+00
1.2042735730e+00
1.2042720538e+00
1.2042706378e+00
1.2042693211e+00
1.2042680998e+00
1.2042669695e+00
1.2042659259e+00
1.2042649646e+00
1.2042640809e+00
1.2042632705e+00
1.2042625289e+00
1.2042618519e+00
1.2042612357e+00
1.2042606771e+00
1.2042601736e+00
1.2042597236e+00
1.2042593267e+00
1.2042589844e+00
1.2042586998e+00
1.2042584786e+00
1.2042583295e+00
1.2042582653e+00
1.2042583039e+00
1.2042584704e+00
1.2042587995e+00
1.2042593404e+00
1.2042601608e+00
1.2042613552e+00
1.2042630485e+00
1.2042653891e+00
1.2042557821e+00
1.1994000564e+00
1.1994264132e+00
1.1994837423e+00
1.1995664183e+00
1.1996732185e+00
1.1998025487e+00
1.1999524880e+00
1.2001208317e+00
1.2003051532e+00
1.2005028559e+00
1.2007112425e+00
1.2009275684e+00
1.2011491096e+00
1.2013732107e+00
1.2015973446e+00
1.2018191490e+00
1.2020364727e+00
1.2022473967e+00
1.2024502640e+00
1.2026436842e+00
1.2028265459e+00
1.2029980066e+00
1.2031574901e+00
1.2033046637e+00
1.2034394248e+00
1.2035618707e+00
1.2036722777e+00
1.2037710685e+00
1.2038587890e+00
1.2039360759e+00
1.2040036360e+00
1.2040622169e+00
1.2041125907e+00
1.2041555302e+00
1.2041917977e+00
1.2042221275e+00
1.2042472198e+00
1.2042677295e+00
1.2042842645e+00
1.2042973789e+00
1.2043075760e+00
1.2043153042e+00
1.2043209628e+00
1.2043249006e+00
1.2043274225e+00
1.2043287897e+00
1.2043292272e+00
1.2043289239e+00
1.2043280402e+00
1.2043267083e+00
1.2043250387e+00
1.2043231212e+00
1.2043210296e+00
1.2043188226e+00
1.2043165482e+00
1.2043142434e+00
1.2043119385e+00
1.2043096560e+00
1.2043074142e+00
1.2043052263e+00
1.2043031028e+00
1.2043010509e+00
1.2042990764e+00
1.2042971827e+00
1.2042953726e+00
1.2042936470e+00
1.2042920070e+00
1.2042904521e+00
1.2042889819e+00
1.2042875952e+00
1.2042862907e+00
1.2042850664e+00
1.2042839205e+00
1.2042828505e+00
1.2042818540e+00
1.2042809282e+00
1.2042800703e+00
1.2042792775e+00
1.2042785467e+00
1.2042778750e+00
1.2042772597e+00
1.2042766980e+00
1.2042761878e+00
1.2042757273e+00
1.2042753151e+00
1.2042749510e+00
1.2042746354e+00
1.2042743702e+00
1.2042741585e+00
1.2042740056e+00
1.2042739185e+00
1.2042739074e+00
1.2042739856e+00
1.2042741708e+00
1.2042744849e+00
1.2042749547e+00
1.2042756089e+00
1.2042764708e+00
1.2042775347e+00
1.2042654937e+00
1.1994588169e+00
1.1994837423e+00
1.1995407342e+00
1.1996228159e+00
1.1997287595e+00
1.1998569790e+00
1.2000055611e+00
1.2001723204e+00
1.2003548454e+00
1.2005505659e+00
1.2007568045e+00
1.2009708477e+00
1.2011899948e+00
1.2014116242e+00
1.2016332338e+00
1.2018524958e+00
1.2020672837e+00
1.2022757114e+00
1.2024761438e+00
1.2026672190e+00
1.2028478431e+00
1.2030171958e+00
1.2031747117e+00
1.2033200729e+00
1.2034531807e+00
1.2035741391e+00
1.2036832216e+00
1.2037808506e+00
1.2038675635e+00
1.2039439913e+00
1.2040108281e+00
1.2040688126e+00
1.2041187020e+00
1.2041612585e+00
1.2041972293e+00
1.2042273381e+00
1.2042522711e+00
1.2042726739e+00
1.2042891420e+00
1.2043022222e+00
1.2043124077e+00
1.2043201415e+00
1.2043258150e+00
1.2043297736e+00
1.2043323163e+00
1.2043337025e+00
1.2043341528e+00
1.2043338556e+00
1.2043329682e+00
1.2043316232e+00
1.2043299290e+00
1.2043279762e+00
1.2043258372e+00
1.2043235723e+00
1.2043212282e+00
1.2043188438e+00
1.2043164485e+00
1.2043140668e+00
1.2043117164e+00
1.2043094124e+00
1.2043071652e+00
1.2043049835e+00
1.2043028734e+00
1.2043008397e+00
1.2042988854e+00
1.2042970131e+00
1.2042952239e+00
1.2042935188e+00
1.2042918978e+00
1.2042903607e+00
1.2042889067e+00
1.2042875350e+00
1.2042862438e+00
1.2042850319e+00
1.2042838970e+00
1.2042828372e+00
1.2042818502e+00
1.2042809335e+00
1.2042800845e+00
1.2042793009e+00
1.2042785800e+00
1.2042779196e+00
1.2042773175e+00
1.2042767721e+00
1.2042762820e+00
1.2042758466e+00
1.2042754660e+00
1.2042751412e+00
1.2042748745e+00
1.2042746691e+00
1.2042745300e+00
1.2042744636e+00
1.2042744780e+00
1.2042745825e+00
1.2042747871e+00
1.2042750995e+00
1.2042755205e+00
1.2042760325e+00
1.2042765781e+00
1.2042632944e+00
1.1995432460e+00
1.1995664183e+00
1.1996228159e+00
1.1997039102e+00
1.1998084867e+00
1.1999349710e+00
1.2000814749e+00
1.2002458348e+00
1.2004256747e+00
1.2006184537e+00
1.2008215373e+00
1.2010322457e+00
1.2012479252e+00
1.2014659904e+00
1.2016839869e+00
1.2018996224e+00
1.2021108157e+00
1.2023157127e+00
1.2025127182e+00
1.2027004963e+00
1.2028779846e+00
1.2030443808e+00
1.2031991414e+00
1.2033419573e+00
1.2034727415e+00
1.2035915978e+00
1.2036988021e+00
1.2037947687e+00
1.2038800297e+00
1.2039552022e+00
1.2040209696e+00
1.2040780531e+00
1.2041271963e+00
1.2041691426e+00
1.2042046248e+00
1.2042343484e+00
1.2042589861e+00
1.2042791670e+00
1.2042954753e+00
1.2043084438e+00
1.2043185565e+00
1.2043262454e+00
1.2043318954e+00
1.2043358431e+00
1.2043383833e+00
1.2043397688e+00
1.2043402179e+00
1.2043399143e+00
1.2043390141e+00
1.2043376466e+00
1.2043359205e+00
1.2043339237e+00
1.2043317296e+00
1.2043293967e+00
1.2043269732e+00
1.2043244966e+00
1.2043219983e+00
1.2043195017e+00
1.2043170265e+00
1.2043145873e+00
1.2043121965e+00
1.2043098626e+00
1.2043075934e+00
1.2043053940e+00
1.2043032690e+00
1.2043012213e+00
1.2042992537e+00
1.2042973675e+00
1.2042955643e+00
1.2042938442e+00
1.2042922080e+00
1.2042906551e+00
1.2042891852e+00
1.2042877974e+00
1.2042864905e+00
1.2042852632e+00
1.2042841138e+00
1.2042830405e+00
1.2042820414e+00
1.2042811143e+00
1.2042802571e+00
1.2042794679e+00
1.2042787447e+00
1.2042780858e+00
1.2042774898e+00
1.2042769558e+00
1.2042764833e+00
1.2042760725e+00
1.2042757243e+00
1.2042754404e+00
1.2042752230e+00
1.2042750752e+00
1.2042750001e+00
1.2042750005e+00
1.2042750770e+00
1.2042752255e+00
1.2042754319e+00
1.2042756641e+00
1.2042758575e+00
1.2042617804e+00
1.1996521050e+00
1.1996732185e+00
1.1997287595e+00
1.1998084867e+00
1.1999111993e+00
1.2000353510e+00
1.2001790793e+00
1.2003402623e+00
1.2005165601e+00
1.2007054842e+00
1.2009044432e+00
1.2011108163e+00
1.2013219965e+00
1.2015354592e+00
1.2017487968e+00
1.2019597758e+00
1.2021663582e+00
1.2023667422e+00
1.2025593689e+00
1.2027429455e+00
1.2029164363e+00
1.2030790703e+00
1.2032303199e+00
1.2033698947e+00
1.2034977124e+00
1.2036138836e+00
1.2037186787e+00
1.2038125088e+00
1.2038958920e+00
1.2039694349e+00
1.2040338015e+00
1.2040896975e+00
1.2041378445e+00
1.2041789685e+00
1.2042137798e+00
1.2042429667e+00
1.2042671812e+00
1.2042870366e+00
1.2043030990e+00
1.2043158884e+00
1.2043258737e+00
1.2043334770e+00
1.2043390710e+00
1.2043429854e+00
1.2043455057e+00
1.2043468803e+00
1.2043473202e+00
1.2043470068e+00
1.2043460911e+00
1.2043447012e+00
1.2043429421e+00
1.2043409020e+00
1.2043386515e+00
1.2043362498e+00
1.2043337435e+00
1.2043311715e+00
1.2043285636e+00
1.2043259452e+00
1.2043233351e+00
1.2043207499e+00
1.2043182013e+00
1.2043157001e+00
1.2043132537e+00
1.2043108694e+00
1.2043085518e+00
1.2043063058e+00
1.2043041344e+00
1.2043020409e+00
1.2043000271e+00
1.2042980952e+00
1.2042962460e+00
1.2042944810e+00
1.2042928001e+00
1.2042912040e+00
1.2042896920e+00
1.2042882640e+00
1.2042869190e+00
1.2042856560e+00
1.2042844735e+00
1.2042833704e+00
1.2042823447e+00
1.2042813950e+00
1.2042805194e+00
1.2042797166e+00
1.2042789848e+00
1.2042783230e+00
1.2042777301e+00
1.2042772054e+00
1.2042767486e+00
1.2042763596e+00
1.2042760385e+00
1.2042757853e+00
1.2042755993e+00
1.2042754783e+00
1.2042754170e+00
1.2042754046e+00
1.2042754214e+00
1.2042754332e+00
1.2042753844e+00
1.2042608036e+00
1.1997837875e+00
1.1998025487e+00
1.1998569790e+00
1.1999349710e+00
1.2000353510e+00
1.2001565992e+00
1.2002968974e+00
1.2004541639e+00
1.2006261176e+00
1.2008103204e+00
1.2010042492e+00
1.2012053397e+00
1.2014110575e+00
1.2016189360e+00
1.2018266394e+00
1.2020319889e+00
1.2022330123e+00
1.2024279558e+00
1.2026153160e+00
1.2027938374e+00
1.2029625270e+00
1.2031206385e+00
1.2032676723e+00
1.2034033494e+00
1.2035276012e+00
1.2036405372e+00
1.2037424286e+00
1.2038336747e+00
1.2039147845e+00
1.2039863449e+00
1.2040490039e+00
1.2041034430e+00
1.2041503640e+00
1.2041904669e+00
1.2042244416e+00
1.2042529512e+00
1.2042766283e+00
1.2042960635e+00
1.2043118062e+00
1.2043243568e+00
1.2043341709e+00
1.2043416547e+00
1.2043471708e+00
1.2043510362e+00
1.2043535295e+00
1.2043548894e+00
1.2043553225e+00
1.2043550028e+00
1.2043540790e+00
1.2043526740e+00
1.2043508915e+00
1.2043488161e+00
1.2043465184e+00
1.2043440549e+00
1.2043414730e+00
1.2043388097e+00
1.2043360963e+00
1.2043333568e+00
1.2043306118e+00
1.2043278770e+00
1.2043251661e+00
1.2043224895e+00
1.2043198568e+00
1.2043172749e+00
1.2043147507e+00
1.2043122893e+00
1.2043098957e+00
1.2043075735e+00
1.2043053268e+00
1.2043031579e+00
1.2043010700e+00
1.2042990646e+00
1.2042971441e+00
1.2042953092e+00
1.2042935612e+00
1.2042919005e+00
1.2042903274e+00
1.2042888416e+00
1.2042874429e+00
1.2042861304e+00
1.2042849031e+00
1.2042837599e+00
1.2042826995e+00
1.2042817204e+00
1.2042808213e+00
1.2042800006e+00
1.2042792570e+00
1.2042785889e+00
1.2042779951e+00
1.2042774739e+00
1.2042770237e+00
1.2042766420e+00
1.2042763253e+00
1.2042760680e+00
1.2042758616e+00
1.2042756924e+00
1.2042755395e+00
1.2042753722e+00
1.2042751472e+00
1.2042602482e+00
1.1999363485e+00
1.1999524880e+00
1.2000055611e+00
1.2000814749e+00
1.2001790793e+00
1.2002968974e+00
1.2004331519e+00
1.2005858228e+00
1.2007526835e+00
1.2009313710e+00
1.2011194261e+00
1.2013143671e+00
1.2015137274e+00
1.2017151241e+00
1.2019162875e+00
1.2021151182e+00
1.2023097034e+00
1.2024983585e+00
1.2026796291e+00
1.2028523150e+00
1.2030154583e+00
1.2031683521e+00
1.2033105167e+00
1.2034416959e+00
1.2035618261e+00
1.2036710242e+00
1.2037695534e+00
1.2038578073e+00
1.2039362768e+00
1.2040055337e+00
1.2040662010e+00
1.2041189392e+00
1.2041644219e+00
1.2042033257e+00
1.2042363117e+00
1.2042640200e+00
1.2042870563e+00
1.2043059906e+00
1.2043213484e+00
1.2043336129e+00
1.2043432197e+00
1.2043505612e+00
1.2043559843e+00
1.2043597958e+00
1.2043622616e+00
1.2043636138e+00
1.2043640493e+00
1.2043637377e+00
1.2043628207e+00
1.2043614186e+00
1.2043596301e+00
1.2043575386e+00
1.2043552112e+00
1.2043527043e+00
1.2043500626e+00
1.2043473240e+00
1.2043445178e+00
1.2043416694e+00
1.2043387983e+00
1.2043359216e+00
1.2043330526e+00
1.2043302034e+00
1.2043273832e+00
1.2043246013e+00
1.2043218643e+00
1.2043191796e+00
1.2043165523e+00
1.2043139884e+00
1.2043114922e+00
1.2043090685e+00
1.2043067208e+00
1.2043044530e+00
1.2043022677e+00
1.2043001680e+00
1.2042981558e+00
1.2042962333e+00
1.2042944015e+00
1.2042926618e+00
1.2042910144e+00
1.2042894597e+00
1.2042879975e+00
1.2042866275e+00
1.2042853486e+00
1.2042841601e+00
1.2042830604e+00
1.2042820484e+00
1.2042811220e+00
1.2042802796e+00
1.2042795189e+00
1.2042788373e+00
1.2042782315e+00
1.2042776976e+00
1.2042772300e+00
1.2042768213e+00
1.2042764612e+00
1.2042761352e+00
1.2042758239e+00
1.2042755013e+00
1.2042751348e+00
1.2042600382e+00
1.2001075574e+00
1.2001208317e+00
1.2001723204e+00
1.2002458348e+00
1.2003402623e+00
1.2004541639e+00
1.2005858228e+00
1.2007332744e+00
1.2008943706e+00
1.2010668167e+00
1.2012482433e+00
1.2014362441e+00
1.2016284466e+00
1.2018225441e+00
1.2020163585e+00
1.2022078614e+00
1.2023952229e+00
1.2025768191e+00
1.2027512647e+00
1.2029174060e+00
1.2030743372e+00
1.2032213815e+00
1.2033580928e+00
1.2034842284e+00
1.2035997403e+00
1.2037047432e+00
1.2037995005e+00
1.2038843908e+00
1.2039598928e+00
1.2040265541e+00
1.2040849772e+00
1.2041357930e+00
1.2041796501e+00
1.2042171937e+00
1.2042490588e+00
1.2042758548e+00
1.2042981630e+00
1.2043165255e+00
1.2043314466e+00
1.2043433855e+00
1.2043527604e+00
1.2043599440e+00
1.2043652696e+00
1.2043690286e+00
1.2043714771e+00
1.2043728349e+00
1.2043732924e+00
1.2043730102e+00
1.2043721255e+00
1.2043707519e+00
1.2043689860e+00
1.2043669059e+00
1.2043645778e+00
1.2043620546e+00
1.2043593810e+00
1.2043565922e+00
1.2043537184e+00
1.2043507830e+00
1.2043478069e+00
1.2043448060e+00
1.2043417952e+00
1.2043387859e+00
1.2043357893e+00
1.2043328141e+00
1.2043298695e+00
1.2043269623e+00
1.2043241005e+00
1.2043212898e+00
1.2043185373e+00
1.2043158479e+00
1.2043132276e+00
1.2043106809e+00
1.2043082130e+00
1.2043058273e+00
1.2043035282e+00
1.2043013184e+00
1.2042992012e+00
1.2042971786e+00
1.2042952526e+00
1.2042934244e+00
1.2042916952e+00
1.2042900652e+00
1.2042885345e+00
1.2042871026e+00
1.2042857687e+00
1.2042845315e+00
1.2042833894e+00
1.2042823402e+00
1.2042813813e+00
1.2042805094e+00
1.2042797203e+00
1.2042790088e+00
1.2042783685e+00
1.2042777908e+00
1.2042772649e+00
1.2042767767e+00
1.2042763088e+00
1.2042758397e+00
1.2042753448e+00
1.2042601330e+00
1.2002949500e+00
1.2003051532e+00
1.2003548454e+00
1.2004256747e+00
1.2005165601e+00
1.2006261176e+00
1.2007526835e+00
1.2008943706e+00
1.2010491007e+00
1.2012146722e+00
1.2013887966e+00
1.2015691688e+00
1.2017535009e+00
1.2019395884e+00
1.2021253346e+00
1.2023088065e+00
1.2024882467e+00
1.2026621141e+00
1.2028290818e+00
1.2029880617e+00
1.2031381896e+00
1.2032788346e+00
1.2034095738e+00
1.2035301905e+00
1.2036406423e+00
1.2037410517e+00
1.2038316724e+00
1.2039128757e+00
1.2039851187e+00
1.2040489307e+00
1.2041048847e+00
1.2041535865e+00
1.2041956515e+00
1.2042316969e+00
1.2042623241e+00
1.2042881150e+00
1.2043096190e+00
1.2043273534e+00
1.2043417944e+00
1.2043533802e+00
1.2043625052e+00
1.2043695255e+00
1.2043747551e+00
1.2043784727e+00
1.2043809194e+00
1.2043823058e+00
1.2043828110e+00
1.2043825890e+00
1.2043817687e+00
1.2043804597e+00
1.2043787520e+00
1.2043767217e+00
1.2043744303e+00
1.2043719296e+00
1.2043692608e+00
1.2043664593e+00
1.2043635526e+00
1.2043605650e+00
1.2043575153e+00
1.2043544209e+00
1.2043512952e+00
1.2043481514e+00
1.2043449998e+00
1.2043418512e+00
1.2043387142e+00
1.2043355981e+00
1.2043325105e+00
1.2043294599e+00
1.2043264530e+00
1.2043234979e+00
1.2043206005e+00
1.2043177683e+00
1.2043150066e+00
1.2043123218e+00
1.2043097188e+00
1.2043072030e+00
1.2043047782e+00
1.2043024488e+00
1.2043002177e+00
1.2042980881e+00
1.2042960617e+00
1.2042941407e+00
1.2042923256e+00
1.2042906173e+00
1.2042890154e+00
1.2042875193e+00
1.2042861275e+00
1.2042848382e+00
1.2042836485e+00
1.2042825549e+00
1.2042815527e+00
1.2042806365e+00
1.2042797991e+00
1.2042790316e+00
1.2042783233e+00
1.2042776611e+00
1.2042770296e+00
1.2042764110e+00
1.2042757863e+00
1.2042605202e+00
1.2004958936e+00
1.2005028559e+00
1.2005505659e+00
1.2006184537e+00
1.2007054842e+00
1.2008103204e+00
1.2009313710e+00
1.2010668167e+00
1.2012146722e+00
1.2013728187e+00
1.2015390730e+00
1.2017112202e+00
1.2018870825e+00
1.2020645454e+00
1.2022416187e+00
1.2024164526e+00
1.2025873852e+00
1.2027529458e+00
1.2029118866e+00
1.2030631730e+00
1.2032060000e+00
1.2033397709e+00
1.2034641006e+00
1.2035787874e+00
1.2036838064e+00
1.2037792773e+00
1.2038654533e+00
1.2039426888e+00
1.2040114265e+00
1.2040721683e+00
1.2041254636e+00
1.2041718847e+00
1.2042120182e+00
1.2042464457e+00
1.2042757386e+00
1.2043004442e+00
1.2043210836e+00
1.2043381424e+00
1.2043520722e+00
1.2043632837e+00
1.2043721509e+00
1.2043790074e+00
1.2043841511e+00
1.2043878427e+00
1.2043903114e+00
1.2043917537e+00
1.2043923402e+00
1.2043922143e+00
1.2043914992e+00
1.2043902964e+00
1.2043886923e+00
1.2043867569e+00
1.2043845498e+00
1.2043821181e+00
1.2043795024e+00
1.2043767344e+00
1.2043738419e+00
1.2043708463e+00
1.2043677674e+00
1.2043646205e+00
1.2043614203e+00
1.2043581785e+00
1.2043549073e+00
1.2043516162e+00
1.2043483161e+00
1.2043450155e+00
1.2043417245e+00
1.2043384513e+00
1.2043352052e+00
1.2043319942e+00
1.2043288272e+00
1.2043257117e+00
1.2043226561e+00
1.2043196672e+00
1.2043167528e+00
1.2043139189e+00
1.2043111722e+00
1.2043085178e+00
1.2043059612e+00
1.2043035064e+00
1.2043011575e+00
1.2042989173e+00
1.2042967885e+00
1.2042947723e+00
1.2042928702e+00
1.2042910818e+00
1.2042894069e+00
1.2042878437e+00
1.2042863899e+00
1.2042850421e+00
1.2042837958e+00
1.2042826453e+00
1.2042815836e+00
1.2042806019e+00
1.2042796902e+00
1.2042788362e+00
1.2042780264e+00
1.2042772459e+00
1.2042764791e+00
1.2042612101e+00
1.2007076437e+00
1.2007112425e+00
1.2007568045e+00
1.2008215373e+00
1.2009044432e+00
1.2010042492e+00
1.2011194261e+00
1.2012482433e+00
1.2013887966e+00
1.2015390730e+00
1.2016969820e+00
1.2018604236e+00
1.2020273162e+00
1.2021956602e+00
1.2023635576e+00
1.2025292654e+00
1.2026912031e+00
1.2028479918e+00
1.2029984495e+00
1.2031416139e+00
1.2032767259e+00
1.2034032393e+00
1.2035207951e+00
1.2036292194e+00
1.2037284937e+00
1.2038187460e+00
1.2039002189e+00
1.2039732582e+00
1.2040382832e+00
1.2040957751e+00
1.2041462514e+00
1.2041902562e+00
1.2042283400e+00
1.2042610531e+00
1.2042889302e+00
1.2043124875e+00
1.2043322116e+00
1.2043485601e+00
1.2043619537e+00
1.2043727792e+00
1.2043813848e+00
1.2043880844e+00
1.2043931552e+00
1.2043968427e+00
1.2043993595e+00
1.2044008912e+00
1.2044015955e+00
1.2044016082e+00
1.2044010425e+00
1.2043999948e+00
1.2043985441e+00
1.2043967571e+00
1.2043946876e+00
1.2043923810e+00
1.2043898735e+00
1.2043871960e+00
1.2043843728e+00
1.2043814255e+00
1.2043783711e+00
1.2043752255e+00
1.2043720015e+00
1.2043687120e+00
1.2043653673e+00
1.2043619789e+00
1.2043585562e+00
1.2043551102e+00
1.2043516497e+00
1.2043481856e+00
1.2043447267e+00
1.2043412837e+00
1.2043378654e+00
1.2043344822e+00
1.2043311427e+00
1.2043278569e+00
1.2043246328e+00
1.2043214796e+00
1.2043184046e+00
1.2043154161e+00
1.2043125203e+00
1.2043097240e+00
1.2043070323e+00
1.2043044506e+00
1.2043019823e+00
1.2042996312e+00
1.2042973990e+00
1.2042952877e+00
1.2042932973e+00
1.2042914274e+00
1.2042896764e+00
1.2042880415e+00
1.2042865186e+00
1.2042851027e+00
1.2042837870e+00
1.2042825636e+00
1.2042814229e+00
1.2042803540e+00
1.2042793449e+00
1.2042783826e+00
1.2042774541e+00
1.2042622306e+00
1.2009274123e+00
1.2009275684e+00
1.2009708477e+00
1.2010322457e+00
1.2011108163e+00
1.2012053397e+00
1.2013143671e+00
1.2014362441e+00
1.2015691688e+00
1.2017112202e+00
1.2018604236e+00
1.2020147786e+00
1.2021723237e+00
1.2023311583e+00
1.2024895001e+00
1.2026456970e+00
1.2027982719e+00
1.2029459226e+00
1.2030875520e+00
1.2032222560e+00
1.2033493390e+00
1.2034682918e+00
1.2035787956e+00
1.2036806931e+00
1.2037739841e+00
1.2038587939e+00
1.2039353644e+00
1.2040040236e+00
1.2040651752e+00
1.2041192715e+00
1.2041668041e+00
1.2042082820e+00
1.2042442243e+00
1.2042751437e+00
1.2043015422e+00
1.2043238994e+00
1.2043426709e+00
1.2043582808e+00
1.2043711225e+00
1.2043815538e+00
1.2043899002e+00
1.2043964515e+00
1.2044014669e+00
1.2044051726e+00
1.2044077678e+00
1.2044094228e+00
1.2044102854e+00
1.2044104799e+00
1.2044101124e+00
1.2044092705e+00
1.2044080285e+00
1.2044064462e+00
1.2044045745e+00
1.2044024534e+00
1.2044001174e+00
1.2043975930e+00
1.2043949040e+00
1.2043920685e+00
1.2043891033e+00
1.2043860217e+00
1.2043828369e+00
1.2043795596e+00
1.2043762012e+00
1.2043727714e+00
1.2043692813e+00
1.2043657401e+00
1.2043621590e+00
1.2043585476e+00
1.2043549174e+00
1.2043512782e+00
1.2043476418e+00
1.2043440182e+00