# vtk DataFile Version 2.0
Blank
ASCII
DATASET STRUCTURED_GRID
DIMENSIONS 101 101 2
POINTS 20402 float
0.0000000000e+00 0.0000000000e+00 0.0000000000e+00
1.0000000000e-02 0.0000000000e+00 0.0000000000e+00
2.0000000000e-02 0.0000000000e+00 0.0000000000e+00
3.0000000000e-02 0.0000000000e+00 0.0000000000e+00
4.0000000000e-02 0.0000000000e+00 0.0000000000e+00
5.0000000000e-02 0.0000000000e+00 0.0000000000e+00
6.0000000000e-02 0.0000000000e+00 0.0000000000e+00
7.0000000000e-02 0.0000000000e+00 0.0000000000e+00
8.0000000000e-02 0.0000000000e+00 0.0000000000e+00
9.0000000000e-02 0.0000000000e+00 0.0000000000e+00
1.0000000000e-01 0.0000000000e+00 0.0000000000e+00
1.1000000000e-01 0.0000000000e+00 0.0000000000e+00
1.2000000000e-01 0.0000000000e+00 0.0000000000e+00
1.3000000000e-01 0.0000000000e+00 0.0000000000e+00
1.4000000000e-01 0.0000000000e+00 0.0000000000e+00
1.5000000000e-01 0.0000000000e+00 0.0000000000e+00
1.6000000000e-01 0.0000000000e+00 0.0000000000e+00
1.7000000000e-01 0.0000000000e+00 0.0000000000e+00
1.8000000000e-01 0.0000000000e+00 0.0000000000e+00
1.9000000000e-01 0.0000000000e+00 0.0000000000e+00
2.0000000000e-01 0.0000000000e+00 0.0000000000e+00
2.1000000000e-01 0.0000000000e+00 0.0000000000e+00
2.2000000000e-01 0.0000000000e+00 0.0000000000e+00
2.3000000000e-01 0.0000000000e+00 0.0000000000e+00
2.4000000000e-01 0.0000000000e+00 0.0000000000e+00
2.5000000000e-01 0.0000000000e+00 0.0000000000e+00
2.6000000000e-01 0.0000000000e+00 0.0000000000e+00
2.7000000000e-01 0.0000000000e+00 0.0000000000e+00
2.8000000000e-01 0.0000000000e+00 0.0000000000e+00
2.9000000000e-01 0.0000000000e+00 0.0000000000e+00
3.0000000000e-01 0.0000000000e+00 0.0000000000e+00
3.1000000000e-01 0.0000000000e+00 0.0000000000e+00
3.2000000000e-01 0.0000000000e+00 0.0000000000e+00
3.3000000000e-01 0.0000000000e+00 0.0000000000e+00
3.4000000000e-01 0.0000000000e+00 0.0000000000e+00
3.5000000000e-01 0.0000000000e+00 0.0000000000e+00
3.6000000000e-01 0.0000000000e+00 0.0000000000e+00
3.7000000000e-01 0.0000000000e+00 0.0000000000e+00
3.8000000000e-01 0.0000000000e+00 0.0000000000e+00
3.9000000000e-01 0.0000000000e+00 0.0000000000e+00
4.0000000000e-01 0.0000000000e+00 0.0000000000e+00
4.1000000000e-01 0.0000000000e+00 0.0000000000e+00
4.2000000000e-01 0.0000000000e+00 0.0000000000e+00
4.3000000000e-01 0.0000000000e+00 0.0000000000e+00
4.4000000000e-01 0.0000000000e+00 0.0000000000e+00
4.5000000000e-01 0.0000000000e+00 0.0000000000e+00
4.6000000000e-01 0.0000000000e+00 0.0000000000e+00
4.7000000000e-01 0.0000000000e+00 0.0000000000e+00
4.8000000000e-01 0.0000000000e+00 0.0000000000e+00
4.9000000000e-01 0.0000000000e+00 0.0000000000e+00
5.0000000000e-01 0.0000000000e+00 0.0000000000e+00
5.1000000000e-01 0.0000000000e+00 0.0000000000e+00
5.2000000000e-01 0.0000000000e+00 0.0000000000e+00
5.3000000000e-01 0.0000000000e+00 0.0000000000e+00
5.4000000000e-01 0.0000000000e+00 0.0000000000e+00
5.5000000000e-01 0.0000000000e+00 0.0000000000e+00
5.6000000000e-01 0.0000000000e+00 0.0000000000e+00
5.7000000000e-01 0.0000000000e+00 0.0000000000e+00
5.8000000000e-01 0.0000000000e+00 0.0000000000e+00
5.9000000000e-01 0.0000000000e+00 0.0000000000e+00
6.0000000000e-01 0.0000000000e+00 0.0000000000e+00
6.1000000000e-01 0.0000000000e+00 0.0000000000e+00
6.2000000000e-01 0.0000000000e+00 0.0000000000e+00
6.3000000000e-01 0.0000000000e+00 0.0000000000e+00
6.4000000000e-01 0.0000000000e+00 0.0000000000e+00
6.5000000000e-01 0.0000000000e+00 0.0000000000e+00
6.6000000000e-01 0.0000000000e+00 0.0000000000e+00
6.7000000000e-01 0.0000000000e+00 0.0000000000e+00
6.8000000000e-01 0.0000000000e+00 0.0000000000e+00
6.9000000000e-01 0.0000000000e+00 0.0000000000e+00
7.0000000000e-01 0.0000000000e+00 0.0000000000e+00
7.1000000000e-01 0.0000000000e+00 0.0000000000e+00
7.2000000000e-01 0.0000000000e+00 0.0000000000e+00
7.3000000000e-01 0.0000000000e+00 0.0000000000e+00
7.4000000000e-01 0.0000000000e+00 0.0000000000e+00
7.5000000000e-01 0.0000000000e+00 0.0000000000e+00
7.6000000000e-01 0.0000000000e+00 0.0000000000e+00
7.7000000000e-01 0.0000000000e+00 0.0000000000e+00
7.8000000000e-01 0.0000000000e+00 0.0000000000e+00
7.9000000000e-01 0.0000000000e+00 0.0000000000e+00
8.0000000000e-01 0.0000000000e+00 0.0000000000e+00
8.1000000000e-01 0.0000000000e+00 0.0000000000e+00
8.2000000000e-01 0.0000000000e+00 0.0000000000e+00
8.3000000000e-01 0.0000000000e+00 0.0000000000e+00
8.4000000000e-01 0.0000000000e+00 0.0000000000e+00
8.5000000000e-01 0.0000000000e+00 0.0000000000e+00
8.6000000000e-01 0.0000000000e+00 0.0000000000e+00
8.7000000000e-01 0.0000000000e+00 0.0000000000e+00
8.8000000000e-01 0.0000000000e+00 0.0000000000e+00
8.9000000000e-01 0.0000000000e+00 0.0000000000e+00
9.0000000000e-01 0.0000000000e+00 0.0000000000e+00
9.1000000000e-01 0.0000000000e+00 0.0000000000e+00
9.2000000000e-01 0.0000000000e+00 0.0000000000e+00
9.3000000000e-01 0.0000000000e+00 0.0000000000e+00
9.4000000000e-01 0.0000000000e+00 0.0000000000e+00
9.5000000000e-01 0.0000000000e+00 0.0000000000e+00
9.6000000000e-01 0.0000000000e+00 0.0000000000e+00
9.7000000000e-01 0.0000000000e+00 0.0000000000e+00
9.8000000000e-01 0.0000000000e+00 0.0000000000e+00
9.9000000000e-01 0.0000000000e+00 0.0000000000e+00
1.0000000000e+00 0.0000000000e+00 0.0000000000e+00
0.0000000000e+00 1.0000000000e-02 0.0000000000e+00
1.0000000000e-02 1.0000000000e-02 0.0000000000e+00
2.0000000000e-02 1.0000000000e-02 0.0000000000e+00
3.0000000000e-02 1.0000000000e-02 0.0000000000e+00
4.0000000000e-02 1.0000000000e-02 0.0000000000e+00
5.0000000000e-02 1.0000000000e-02 0.0000000000e+00
6.0000000000e-02 1.0000000000e-02 0.0000000000e+00
7.0000000000e-02 1.0000000000e-02 0.0000000000e+00
8.0000000000e-02 1.0000000000e-02 0.0000000000e+00
9.0000000000e-02 1.0000000000e-02 0.0000000000e+00
1.0000000000e-01 1.0000000000e-02 0.0000000000e+00
1.1000000000e-01 1.0000000000e-02 0.0000000000e+00
1.2000000000e-01 1.0000000000e-02 0.0000000000e+00
1.3000000000e-01 1.0000000000e-02 0.0000000000e+00
1.4000000000e-01 1.0000000000e-02 0.0000000000e+00
1.5000000000e-01 1.0000000000e-02 0.0000000000e+00
1.6000000000e-01 1.0000000000e-02 0.0000000000e+00
1.7000000000e-01 1.0000000000e-02 0.0000000000e+00
1.8000000000e-01 1.0000000000e-02 0.0000000000e+00
1.9000000000e-01 1.0000000000e-02 0.0000000000e+00
2.0000000000e-01 1.0000000000e-02 0.0000000000e+00
2.1000000000e-01 1.0000000000e-02 0.0000000000e+00
2.2000000000e-01 1.0000000000e-02 0.0000000000e+00
2.3000000000e-01 1.0000000000e-02 0.0000000000e+00
2.4000000000e-01 1.0000000000e-02 0.0000000000e+00
2.5000000000e-01 1.0000000000e-02 0.0000000000e+00
2.6000000000e-01 1.0000000000e-02 0.0000000000e+00
2.7000000000e-01 1.0000000000e-02 0.0000000000e+00
2.8000000000e-01 1.0000000000e-02 0.0000000000e+00
2.9000000000e-01 1.0000000000e-02 0.0000000000e+00
3.0000000000e-01 1.0000000000e-02 0.0000000000e+00
3.1000000000e-01 1.0000000000e-02 0.0000000000e+00
3.2000000000e-01 1.0000000000e-02 0.0000000000e+00
3.3000000000e-01 1.0000000000e-02 0.0000000000e+00
3.4000000000e-01 1.0000000000e-02 0.0000000000e+00
3.5000000000e-01 1.0000000000e-02 0.0000000000e+00
3.6000000000e-01 1.0000000000e-02 0.0000000000e+00
3.7000000000e-01 1.0000000000e-02 0.0000000000e+00
3.8000000000e-01 1.0000000000e-02 0.0000000000e+00
3.9000000000e-01 1.0000000000e-02 0.0000000000e+00
4.0000000000e-01 1.0000000000e-02 0.0000000000e+00
4.1000000000e-01 1.0000000000e-02 0.0000000000e+00
4.2000000000e-01 1.0000000000e-02 0.0000000000e+00
4.3000000000e-01 1.0000000000e-02 0.0000000000e+00
4.4000000000e-01 1.0000000000e-02 0.0000000000e+00
4.5000000000e-01 1.0000000000e-02 0.0000000000e+00
4.6000000000e-01 1.0000000000e-02 0.0000000000e+00
4.7000000000e-01 1.0000000000e-02 0.0000000000e+00
4.8000000000e-01 1.0000000000e-02 0.0000000000e+00
4.9000000000e-01 1.0000000000e-02 0.0000000000e+00
5.0000000000e-01 1.0000000000e-02 0.0000000000e+00
5.1000000000e-01 1.0000000000e-02 0.0000000000e+00
5.2000000000e-01 1.0000000000e-02 0.0000000000e+00
5.3000000000e-01 1.0000000000e-02 0.0000000000e+00
5.4000000000e-01 1.0000000000e-02 0.0000000000e+00
5.5000000000e-01 1.0000000000e-02 0.0000000000e+00
5.6000000000e-01 1.0000000000e-02 0.0000000000e+00
5.7000000000e-01 1.0000000000e-02 0.0000000000e+00
5.8000000000e-01 1.0000000000e-02 0.0000000000e+00
5.9000000000e-01 1.0000000000e-02 0.0000000000e+00
6.0000000000e-01 1.0000000000e-02 0.0000000000e+00
6.1000000000e-01 1.0000000000e-02 0.0000000000e+00
6.2000000000e-01 1.0000000000e-02 0.0000000000e+00
6.3000000000e-01 1.0000000000e-02 0.0000000000e+00
6.4000000000e-01 1.0000000000e-02 0.0000000000e+00
6.5000000000e-01 1.0000000000e-02 0.0000000000e+00
6.6000000000e-01 1.0000000000e-02 0.0000000000e+00
6.7000000000e-01 1.0000000000e-02 0.0000000000e+00
6.8000000000e-01 1.0000000000e-02 0.0000000000e+00
6.9000000000e-01 1.0000000000e-02 0.0000000000e+00
7.0000000000e-01 1.0000000000e-02 0.0000000000e+00
7.1000000000e-01 1.0000000000e-02 0.0000000000e+00
7.2000000000e-01 1.0000000000e-02 0.0000000000e+00
7.3000000000e-01 1.0000000000e-02 0.0000000000e+00
7.4000000000e-01 1.0000000000e-02 0.0000000000e+00
7.5000000000e-01 1.0000000000e-02 0.0000000000e+00
7.6000000000e-01 1.0000000000e-02 0.0000000000e+00
7.7000000000e-01 1.0000000000e-02 0.0000000000e+00
7.8000000000e-01 1.0000000000e-02 0.0000000000e+00
7.9000000000e-01 1.0000000000e-02 0.0000000000e+00
8.0000000000e-01 1.0000000000e-02 0.0000000000e+00
8.1000000000e-01 1.0000000000e-02 0.0000000000e+00
8.2000000000e-01 1.0000000000e-02 0.0000000000e+00
8.3000000000e-01 1.0000000000e-02 0.0000000000e+00
8.4000000000e-01 1.0000000000e-02 0.0000000000e+00
8.5000000000e-01 1.0000000000e-02 0.0000000000e+00
8.6000000000e-01 1.0000000000e-02 0.0000000000e+00
8.7000000000e-01 1.0000000000e-02 0.0000000000e+00
8.8000000000e-01 1.0000000000e-02 0.0000000000e+00
8.9000000000e-01 1.0000000000e-02 0.0000000000e+00
9.0000000000e-01 1.0000000000e-02 0.0000000000e+00
9.1000000000e-01 1.0000000000e-02 0.0000000000e+00
9.2000000000e-01 1.0000000000e-02 0.0000000000e+00
[...]
CELL_DATA 10000

SCALARS massDensity float
LOOKUP_TABLE default
1.1989059138e+00
1.1989453461e+00
1.1990042691e+00
1.1990928791e+00
1.1992095659e+00
1.1993523121e+00
1.1995187562e+00
1.1997062452e+00
1.1999119010e+00
1.2001326826e+00
1.2003654610e+00
1.2006070833e+00
1.2008544460e+00
1.2011045506e+00
1.2013545652e+00
1.2016018652e+00
1.2018440766e+00
1.2020790976e+00
1.2023051225e+00
1.2025206441e+00
1.2027244585e+00
1.2029156528e+00
1.2030935948e+00
1.2032579093e+00
1.2034084591e+00
1.2035453150e+00
1.2036687327e+00
1.2037791214e+00
1.2038770204e+00
1.2039630694e+00
1.2040379881e+00
1.2041025498e+00
1.2041575649e+00
1.2042038592e+00
1.2042422616e+00
1.2042735870e+00
1.2042986281e+00
1.2043181427e+00
1.2043328490e+00
1.2043434172e+00
1.2043504679e+00
1.2043545670e+00
1.2043562268e+00
1.2043559042e+00
1.2043540034e+00
1.2043508762e+00
1.2043468268e+00
1.2043421132e+00
1.2043369527e+00
1.2043315243e+00
1.2043259741e+00
1.2043204185e+00
1.2043149488e+00
1.2043096339e+00
1.2043045252e+00
1.2042996580e+00
1.2042950560e+00
1.2042907321e+00
1.2042866921e+00
1.2042829348e+00
1.2042794552e+00
1.2042762441e+00
1.2042732904e+00
1.2042705813e+00
1.2042681029e+00
1.2042658407e+00
1.2042637805e+00
1.2042619078e+00
1.2042602088e+00
1.2042586700e+00
1.2042572785e+00
1.2042560222e+00
1.2042548896e+00
1.2042538699e+00
1.2042529527e+00
1.2042521287e+00
1.2042513887e+00
1.2042507245e+00
1.2042501283e+00
1.2042495930e+00
1.2042491121e+00
1.2042486800e+00
1.2042482918e+00
1.2042479443e+00
1.2042476350e+00
1.2042473641e+00
1.2042471332e+00
1.2042469474e+00
1.2042468148e+00
1.2042467481e+00
1.2042467652e+00
1.2042468909e+00
1.2042471586e+00
1.2042476139e+00
1.2042483181e+00
1.2042493551e+00
1.2042508376e+00
1.2042529129e+00
1.2042557527e+00
1.2042444571e+00
1.1989453461e+00
1.1989867307e+00
1.1990464159e+00
1.1991352046e+00
1.1992516310e+00
1.1993937799e+00
1.1995593528e+00
1.1997457442e+00
1.1999501021e+00
1.2001694098e+00
1.2004005485e+00
1.2006403790e+00
1.2008858001e+00
1.2011338217e+00
1.2013816107e+00
1.2016265487e+00
1.2018662605e+00
1.2020986518e+00
1.2023219193e+00
1.2025345680e+00
1.2027354040e+00
1.2029235347e+00
1.2030983473e+00
1.2032594970e+00
1.2034068762e+00
1.2035405950e+00
1.2036609467e+00
1.2037683855e+00
1.2038634917e+00
1.2039469501e+00
1.2040195184e+00
1.2040820086e+00
1.2041352601e+00
1.2041801251e+00
1.2042174474e+00
1.2042480525e+00
1.2042727316e+00
1.2042922364e+00
1.2043072683e+00
1.2043184766e+00
1.2043264531e+00
1.2043317328e+00
1.2043347917e+00
1.2043360509e+00
1.2043358766e+00
1.2043345851e+00
1.2043324450e+00
1.2043296831e+00
1.2043264869e+00
1.2043230107e+00
1.2043193781e+00
1.2043156880e+00
1.2043120167e+00
1.2043084227e+00
1.2043049486e+00
1.2043016253e+00
1.2042984727e+00
1.2042955035e+00
1.2042927235e+00
1.2042901342e+00
1.2042877328e+00
1.2042855144e+00
1.2042834718e+00
1.2042815968e+00
1.2042798800e+00
1.2042783120e+00
1.2042768828e+00
1.2042755830e+00
1.2042744028e+00
1.2042733332e+00
1.2042723652e+00
1.2042714906e+00
1.2042707014e+00
1.2042699902e+00
1.2042693499e+00
1.2042687739e+00
1.2042682563e+00
1.2042677914e+00
1.2042673739e+00
1.2042669990e+00
1.2042666629e+00
1.2042663615e+00
1.2042660924e+00
1.2042658532e+00
1.2042656430e+00
1.2042654619e+00
1.2042653118e+00
1.2042651958e+00
1.2042651197e+00
1.2042650915e+00
1.2042651223e+00
1.2042652266e+00
1.2042654234e+00
1.2042657362e+00
1.2042661942e+00
1.2042668310e+00
1.2042676827e+00
1.2042687767e+00
1.2042701064e+00
1.2042559360e+00
1.1990042691e+00
1.1990464159e+00
1.1991059523e+00
1.1991941214e+00
1.1993095263e+00
1.1994503082e+00
1.1996142259e+00
1.1997987162e+00
1.2000009763e+00
1.2002180251e+00
1.2004467882e+00
1.2006841576e+00
1.2009270716e+00
1.2011725655e+00
1.2014178392e+00
1.2016602921e+00
1.2018975736e+00
1.2021275994e+00
1.2023485819e+00
1.2025590286e+00
1.2027577538e+00
1.2029438617e+00
1.2031167427e+00
1.2032760456e+00
1.2034216638e+00
1.2035537011e+00
1.2036724519e+00
1.2037783659e+00
1.2038720264e+00
1.2039541167e+00
1.2040253995e+00
1.2040866875e+00
1.2041388263e+00
1.2041826697e+00
1.2042190673e+00
1.2042488453e+00
1.2042727985e+00
1.2042916770e+00
1.2043061827e+00
1.2043169604e+00
1.2043245987e+00
1.2043296252e+00
1.2043325103e+00
1.2043336656e+00
1.2043334497e+00
1.2043321689e+00
1.2043300839e+00
1.2043274120e+00
1.2043243332e+00
1.2043209938e+00
1.2043175116e+00
1.2043139791e+00
1.2043104685e+00
1.2043070339e+00
1.2043037153e+00
1.2043005409e+00
1.2042975295e+00
1.2042946923e+00
1.2042920349e+00
1.2042895581e+00
1.2042872597e+00
1.2042851347e+00
1.2042831766e+00
1.2042813774e+00
1.2042797286e+00
1.2042782212e+00
1.2042768460e+00
1.2042755937e+00
1.2042744557e+00
1.2042734230e+00
1.2042724874e+00
1.2042716410e+00
1.2042708762e+00
1.2042701861e+00
1.2042695639e+00
1.2042690036e+00
1.2042684993e+00
1.2042680459e+00
1.2042676384e+00
1.2042672726e+00
1.2042669446e+00
1.2042666514e+00
1.2042663901e+00
1.2042661593e+00
1.2042659580e+00
1.2042657864e+00
1.2042656460e+00
1.2042655398e+00
1.2042654722e+00
1.2042654498e+00
1.2042654806e+00
1.2042655755e+00
1.2042657468e+00
1.2042660088e+00
1.2042663758e+00
1.2042668598e+00
1.2042674636e+00
1.2042681682e+00
1.2042689068e+00
1.2042532831e+00
1.1990928791e+00
1.1991352046e+00
1.1991941214e+00
1.1992811322e+00
1.1993948691e+00
1.1995335248e+00
1.1996949056e+00
1.1998765095e+00
1.2000755838e+00
1.2002892101e+00
1.2005143630e+00
1.2007479952e+00
1.2009870893e+00
1.2012287350e+00
1.2014701686e+00
1.2017088343e+00
1.2019424075e+00
1.2021688367e+00
1.2023863493e+00
1.2025934738e+00
1.2027890292e+00
1.2029721305e+00
1.2031421653e+00
1.2032987861e+00
1.2034418790e+00
1.2035715479e+00
1.2036880789e+00
1.2037919206e+00
1.2038836492e+00
1.2039639476e+00
1.2040335734e+00
1.2040933401e+00
1.2041440895e+00
1.2041866767e+00
1.2042219478e+00
1.2042507293e+00
1.2042738117e+00
1.2042919432e+00
1.2043058192e+00
1.2043160802e+00
1.2043233061e+00
1.2043280176e+00
1.2043306746e+00
1.2043316804e+00
1.2043313822e+00
1.2043300774e+00
1.2043280158e+00
1.2043254062e+00
1.2043224194e+00
1.2043191943e+00
1.2043158413e+00
1.2043124476e+00
1.2043090797e+00
1.2043057883e+00
1.2043026100e+00
1.2042995707e+00
1.2042966874e+00
1.2042939704e+00
1.2042914243e+00
1.2042890501e+00
1.2042868453e+00
1.2042848052e+00
1.2042829236e+00
1.2042811932e+00
1.2042796059e+00
1.2042781532e+00
1.2042768265e+00
1.2042756172e+00
1.2042745169e+00
1.2042735174e+00
1.2042726108e+00
1.2042717897e+00
1.2042710468e+00
1.2042703755e+00
1.2042697696e+00
1.2042692232e+00
1.2042687309e+00
1.2042682877e+00
1.2042678891e+00
1.2042675310e+00
1.2042672101e+00
1.2042669232e+00
1.2042666682e+00
1.2042664432e+00
1.2042662477e+00
1.2042660814e+00
1.2042659457e+00
1.2042658425e+00
1.2042657753e+00
1.2042657485e+00
1.2042657679e+00
1.2042658398e+00
1.2042659716e+00
1.2042661694e+00
1.2042664373e+00
1.2042667731e+00
1.2042671634e+00
1.2042675721e+00
1.2042679260e+00
1.2042513754e+00
1.1992095659e+00
1.1992516310e+00
1.1993095263e+00
1.1993948691e+00
1.1995063217e+00
1.1996421161e+00
1.1998001211e+00
1.1999778917e+00
1.2001727503e+00
1.2003818414e+00
1.2006022184e+00
1.2008308957e+00
1.2010649313e+00
1.2013014701e+00
1.2015378144e+00
1.2017714525e+00
1.2020001123e+00
1.2022217729e+00
1.2024346987e+00
1.2026374347e+00
1.2028288225e+00
1.2030079811e+00
1.2031743085e+00
1.2033274526e+00
1.2034673013e+00
1.2035939487e+00
1.2037076781e+00
1.2038089269e+00
1.2038982668e+00
1.2039763700e+00
1.2040439900e+00
1.2041019309e+00
1.2041510311e+00
1.2041921373e+00
1.2042260922e+00
1.2042537140e+00
1.2042757888e+00
1.2042930557e+00
1.2043062039e+00
1.2043158633e+00
1.2043226057e+00
1.2043269401e+00
1.2043293166e+00
1.2043301260e+00
1.2043297055e+00
1.2043283404e+00
1.2043262707e+00
1.2043236943e+00
1.2043207736e+00
1.2043176387e+00
1.2043143933e+00
1.2043111177e+00
1.2043078742e+00
1.2043047084e+00
1.2043016544e+00
1.2042987350e+00
1.2042959659e+00
1.2042933559e+00
1.2042909094e+00
1.2042886264e+00
1.2042865048e+00
1.2042845400e+00
1.2042827262e+00
1.2042810564e+00
1.2042795232e+00
1.2042781184e+00
1.2042768341e+00
1.2042756621e+00
1.2042745946e+00
1.2042736238e+00
1.2042727421e+00
1.2042719426e+00
1.2042712185e+00
1.2042705633e+00
1.2042699712e+00
1.2042694365e+00
1.2042689542e+00
1.2042685195e+00
1.2042681281e+00
1.2042677763e+00
1.2042674606e+00
1.2042671784e+00
1.2042669274e+00
1.2042667059e+00
1.2042665130e+00
1.2042663485e+00
1.2042662128e+00
1.2042661074e+00
1.2042660342e+00
1.2042659961e+00
1.2042659962e+00
1.2042660379e+00
1.2042661237e+00
1.2042662547e+00
1.2042664280e+00
1.2042666346e+00
1.2042668541e+00
1.2042670498e+00
1.2042671592e+00
1.2042500160e+00
1.1993523121e+00
1.1993937799e+00
1.1994503082e+00
1.1995335248e+00
1.1996421161e+00
1.1997743690e+00
1.1999282082e+00
1.2001012688e+00
1.2002909444e+00
1.2004944717e+00
1.2007089802e+00
1.2009315780e+00
1.2011593958e+00
1.2013896655e+00
1.2016197521e+00
1.2018472176e+00
1.2020698377e+00
1.2022856478e+00
1.2024929434e+00
1.2026903074e+00
1.2028765959e+00
1.2030509489e+00
1.2032127656e+00
1.2033617011e+00
1.2034976351e+00
1.2036206600e+00
1.2037310455e+00
1.2038292228e+00
1.2039157481e+00
1.2039912857e+00
1.2040565742e+00
1.2041124099e+00
1.2041596175e+00
1.2041990362e+00
1.2042314962e+00
1.2042578080e+00
1.2042787452e+00
1.2042950385e+00
1.2043073643e+00
1.2043163427e+00
1.2043225319e+00
1.2043264301e+00
1.2043284735e+00
1.2043290416e+00
1.2043284580e+00
1.2043269969e+00
1.2043248861e+00
1.2043223138e+00
1.2043194318e+00
1.2043163624e+00
1.2043132012e+00
1.2043100227e+00
1.2043068831e+00
1.2043038246e+00
1.2043008770e+00
1.2042980614e+00
1.2042953910e+00
1.2042928738e+00
1.2042905130e+00
1.2042883088e+00
1.2042862586e+00
1.2042843583e+00
1.2042826021e+00
1.2042809836e+00
1.2042794957e+00
1.2042781309e+00
1.2042768817e+00
1.2042757404e+00
1.2042746995e+00
1.2042737518e+00
1.2042728902e+00
1.2042721078e+00
1.2042713984e+00
1.2042707557e+00
1.2042701742e+00
1.2042696484e+00
1.2042691735e+00
1.2042687449e+00
1.2042683586e+00
1.2042680109e+00
1.2042676986e+00
1.2042674189e+00
1.2042671697e+00
1.2042669490e+00
1.2042667560e+00
1.2042665899e+00
1.2042664507e+00
1.2042663388e+00
1.2042662553e+00
1.2042662012e+00
1.2042661779e+00
1.2042661859e+00
1.2042662250e+00
1.2042662924e+00
1.2042663820e+00
1.2042664815e+00
1.2042665705e+00
1.2042666163e+00
1.2042665722e+00
1.2042490439e+00
1.1995187562e+00
1.1995593528e+00
1.1996142259e+00
1.1996949056e+00
1.1998001211e+00
1.1999282082e+00
1.2000771695e+00
1.2002447138e+00
1.2004283340e+00
1.2006253528e+00
1.2008330074e+00
1.2010484939e+00
1.2012690486e+00
1.2014919841e+00
1.2017147596e+00
1.2019350038e+00
1.2021505690e+00
1.2023595387e+00
1.2025602643e+00
1.2027513568e+00
1.2029317074e+00
1.2031004665e+00
1.2032570498e+00
1.2034011087e+00
1.2035325257e+00
1.2036513801e+00
1.2037579355e+00
1.2038526048e+00
1.2039359342e+00
1.2040085684e+00
1.2040712341e+00
1.2041247091e+00
1.2041698065e+00
1.2042073482e+00
1.2042381530e+00
1.2042630156e+00
1.2042826981e+00
1.2042979157e+00
1.2043093330e+00
1.2043175546e+00
1.2043231263e+00
1.2043265308e+00
1.2043281917e+00
1.2043284733e+00
1.2043276871e+00
1.2043260935e+00
1.2043239091e+00
1.2043213102e+00
1.2043184394e+00
1.2043154092e+00
1.2043123082e+00
1.2043092036e+00
1.2043061469e+00
1.2043031750e+00
1.2043003151e+00
1.2042975849e+00
1.2042949964e+00
1.2042925557e+00
1.2042902657e+00
1.2042881258e+00
1.2042861337e+00
1.2042842851e+00
1.2042825748e+00
1.2042809965e+00
1.2042795437e+00
1.2042782094e+00
1.2042769865e+00
1.2042758677e+00
1.2042748461e+00
1.2042739147e+00
1.2042730669e+00
1.2042722960e+00
1.2042715962e+00
1.2042709614e+00
1.2042703862e+00
1.2042698656e+00
1.2042693948e+00
1.2042689693e+00
1.2042685852e+00
1.2042682391e+00
1.2042679275e+00
1.2042676479e+00
1.2042673978e+00
1.2042671756e+00
1.2042669797e+00
1.2042668091e+00
1.2042666632e+00
1.2042665419e+00
1.2042664448e+00
1.2042663722e+00
1.2042663233e+00
1.2042662975e+00
1.2042662920e+00
1.2042663024e+00
1.2042663208e+00
1.2042663348e+00
1.2042663257e+00
1.2042662676e+00
1.2042661264e+00
1.2042483424e+00
1.1997062452e+00
1.1997457442e+00
1.1997987162e+00
1.1998765095e+00
1.1999778917e+00
1.2001012688e+00
1.2002447138e+00
1.2004060356e+00
1.2005828177e+00
1.2007724994e+00
1.2009724170e+00
1.2011798872e+00
1.2013922428e+00
1.2016069097e+00
1.2018214319e+00
1.2020335351e+00
1.2022411381e+00
1.2024423997e+00
1.2026357158e+00
1.2028197492e+00
1.2029934138e+00
1.2031558894e+00
1.2033065957e+00
1.2034451947e+00
1.2035715591e+00
1.2036857652e+00
1.2037880584e+00
1.2038788405e+00
1.2039586353e+00
1.2040280728e+00
1.2040878570e+00
1.2041387500e+00
1.2041815431e+00
1.2042170433e+00
1.2042460494e+00
1.2042693414e+00
1.2042876629e+00
1.2043017149e+00
1.2043121441e+00
1.2043195412e+00
1.2043244345e+00
1.2043272927e+00
1.2043285228e+00
1.2043284758e+00
1.2043274476e+00
1.2043256862e+00
1.2043233948e+00
1.2043207390e+00
1.2043178501e+00
1.2043148324e+00
1.2043117657e+00
1.2043087112e+00
1.2043057139e+00
1.2043028072e+00
1.2043000138e+00
1.2042973494e+00
1.2042948236e+00
1.2042924416e+00
1.2042902051e+00
1.2042881135e+00
1.2042861639e+00
1.2042843525e+00
1.2042826741e+00
1.2042811232e+00
1.2042796933e+00
1.2042783781e+00
1.2042771708e+00
1.2042760647e+00
1.2042750532e+00
1.2042741297e+00
1.2042732878e+00
1.2042725214e+00
1.2042718246e+00
1.2042711918e+00
1.2042706178e+00
1.2042700974e+00
1.2042696262e+00
1.2042691998e+00
1.2042688143e+00
1.2042684662e+00
1.2042681523e+00
1.2042678697e+00
1.2042676162e+00
1.2042673894e+00
1.2042671879e+00
1.2042670102e+00
1.2042668552e+00
1.2042667218e+00
1.2042666093e+00
1.2042665166e+00
1.2042664421e+00
1.2042663836e+00
1.2042663375e+00
1.2042662983e+00
1.2042662578e+00
1.2042662045e+00
1.2042661227e+00
1.2042659923e+00
1.2042657894e+00
1.2042478304e+00
1.1999119010e+00
1.1999501021e+00
1.2000009763e+00
1.2000755838e+00
1.2001727503e+00
1.2002909444e+00
1.2004283340e+00
1.2005828177e+00
1.2007520985e+00
1.2009337210e+00
1.2011251526e+00
1.2013238184e+00
1.2015271807e+00
1.2017327663e+00
1.2019382356e+00
1.2021413987e+00
1.2023402699e+00
1.2025330702e+00
1.2027182658e+00
1.2028945574e+00
1.2030609035e+00
1.2032164989e+00
1.2033607849e+00
1.2034934204e+00
1.2036142813e+00
1.2037234277e+00
1.2038210961e+00
1.2039076649e+00
1.2039836419e+00
1.2040496311e+00
1.2041063180e+00
1.2041544386e+00
1.2041947659e+00
1.2042280826e+00
1.2042551698e+00
1.2042767854e+00
1.2042936562e+00
1.2043064628e+00
1.2043158359e+00
1.2043223466e+00
1.2043265080e+00
1.2043287705e+00
1.2043295263e+00
1.2043291094e+00
1.2043278023e+00
1.2043258377e+00
1.2043234071e+00
1.2043206630e+00
1.2043177273e+00
1.2043146938e+00
1.2043116350e+00
1.2043086047e+00
1.2043056428e+00
1.2043027773e+00
1.2043000280e+00
1.2042974075e+00
1.2042949237e+00
1.2042925801e+00
1.2042903779e+00
1.2042883158e+00
1.2042863912e+00
1.2042846000e+00
1.2042829377e+00
1.2042813987e+00
1.2042799773e+00
1.2042786675e+00
1.2042774630e+00
1.2042763576e+00
1.2042753449e+00
1.2042744189e+00
1.2042735733e+00
1.2042728024e+00
1.2042721005e+00
1.2042714622e+00
1.2042708822e+00
1.2042703559e+00
1.2042698786e+00
1.2042694461e+00
1.2042690544e+00
1.2042687001e+00
1.2042683798e+00
1.2042680907e+00
1.2042678301e+00
1.2042675958e+00
1.2042673858e+00
1.2042671983e+00
1.2042670316e+00
1.2042668844e+00
1.2042667550e+00
1.2042666417e+00
1.2042665420e+00
1.2042664531e+00
1.2042663707e+00
1.2042662892e+00
1.2042662005e+00
1.2042660948e+00
1.2042659591e+00
1.2042657782e+00
1.2042655351e+00
1.2042474539e+00
1.2001326826e+00
1.2001694098e+00
1.2002180251e+00
1.2002892101e+00
1.2003818414e+00
1.2004944717e+00
1.2006253528e+00
1.2007724994e+00
1.2009337210e+00
1.2011066978e+00
1.2012890136e+00
1.2014782343e+00
1.2016719364e+00
1.2018677797e+00
1.2020635256e+00
1.2022570989e+00
1.2024465941e+00
1.2026303216e+00
1.2028068023e+00
1.2029747989e+00
1.2031332988e+00
1.2032815320e+00
1.2034189463e+00
1.2035452128e+00
1.2036601968e+00
1.2037639540e+00
1.2038566985e+00
1.2039387941e+00
1.2040107207e+00
1.2040730621e+00
1.2041264745e+00
1.2041716726e+00
1.2042094012e+00
1.2042404223e+00
1.2042654910e+00
1.2042853460e+00
1.2043006906e+00
1.2043121873e+00
1.2043204449e+00
1.2043260180e+00
1.2043293994e+00
1.2043310236e+00
1.2043312644e+00
1.2043304409e+00
1.2043288189e+00
1.2043266183e+00
1.2043240159e+00
1.2043211536e+00
1.2043181411e+00
1.2043150638e+00
1.2043119852e+00
1.2043089528e+00
1.2043060000e+00
1.2043031510e+00
1.2043004213e+00
1.2042978212e+00
1.2042953561e+00
1.2042930289e+00
1.2042908393e+00
1.2042887861e+00
1.2042868661e+00
1.2042850760e+00
1.2042834109e+00
1.2042818661e+00
1.2042804362e+00
1.2042791157e+00
1.2042778986e+00
1.2042767794e+00
1.2042757519e+00
1.2042748105e+00
1.2042739493e+00
1.2042731628e+00
1.2042724454e+00
1.2042717920e+00
1.2042711975e+00
1.2042706571e+00
1.2042701664e+00
1.2042697210e+00
1.2042693171e+00
1.2042689509e+00
1.2042686192e+00
1.2042683189e+00
1.2042680472e+00
1.2042678015e+00
1.2042675797e+00
1.2042673794e+00
1.2042671987e+00
1.2042670357e+00
1.2042668882e+00
1.2042667539e+00
1.2042666300e+00
1.2042665130e+00
1.2042663986e+00
1.2042662810e+00
1.2042661533e+00
1.2042660066e+00
1.2042658308e+00
1.2042656142e+00
1.2042653448e+00
1.2042471763e+00
1.2003654610e+00
1.2004005485e+00
1.2004467882e+00
1.2005143630e+00
1.2006022184e+00
1.2007089802e+00
1.2008330074e+00
1.2009724170e+00
1.2011251526e+00
1.2012890136e+00
1.2014617307e+00
1.2016409935e+00
1.2018245238e+00
1.2020100965e+00
1.2021956049e+00
1.2023790704e+00
1.2025586960e+00
1.2027328643e+00
1.2029001763e+00
1.2030594393e+00
1.2032096918e+00
1.2033501825e+00
1.2034803834e+00
1.2035999630e+00
1.2037087897e+00
1.2038069009e+00
1.2038944992e+00
1.2039719207e+00
1.2040396254e+00
1.2040981657e+00
1.2041481745e+00
1.2041903350e+00
1.2042253685e+00
1.2042540076e+00
1.2042769854e+00
1.2042950140e+00
1.2043087763e+00
1.2043189108e+00
1.2043260079e+00
1.2043306001e+00
1.2043331630e+00
1.2043341111e+00
1.2043338025e+00
1.2043325382e+00
1.2043305698e+00
1.2043281012e+00
1.2043252973e+00
1.2043222864e+00
1.2043191687e+00
1.2043160189e+00
1.2043128930e+00
1.2043098308e+00
1.2043068609e+00
1.2043040017e+00
1.2043012660e+00
1.2042986607e+00
1.2042961899e+00
1.2042938544e+00
1.2042916539e+00
1.2042895861e+00
1.2042876485e+00
1.2042858372e+00
1.2042841483e+00
1.2042825771e+00
1.2042811189e+00
1.2042797686e+00
1.2042785209e+00
1.2042773705e+00
1.2042763119e+00
1.2042753396e+00
1.2042744482e+00
1.2042736323e+00
1.2042728868e+00
1.2042722064e+00
1.2042715862e+00
1.2042710216e+00
1.2042705081e+00
1.2042700413e+00
1.2042696172e+00
1.2042692322e+00
1.2042688826e+00
1.2042685653e+00
1.2042682772e+00
1.2042680155e+00
1.2042677776e+00
1.2042675611e+00
1.2042673635e+00
1.2042671825e+00
1.2042670155e+00
1.2042668598e+00
1.2042667123e+00
1.2042665693e+00
1.2042664262e+00
1.2042662780e+00
1.2042661181e+00
1.2042659394e+00
1.2042657333e+00
1.2042654912e+00
1.2042652041e+00
1.2042469733e+00
1.2006070833e+00
1.2006403790e+00
1.2006841576e+00
1.2007479952e+00
1.2008308957e+00
1.2009315780e+00
1.2010484939e+00
1.2011798872e+00
1.2013238184e+00
1.2014782343e+00
1.2016409935e+00
1.2018099386e+00
1.2019829171e+00
1.2021578490e+00
1.2023327390e+00
1.2025057342e+00
1.2026751263e+00
1.2028393963e+00
1.2029972065e+00
1.2031474323e+00
1.2032891450e+00
1.2034216320e+00
1.2035443732e+00
1.2036570505e+00
1.2037595201e+00
1.2038518141e+00
1.2039341101e+00
1.2040067262e+00
1.2040700906e+00
1.2041247319e+00
1.2041712491e+00
1.2042102998e+00
1.2042425728e+00
1.2042687762e+00
1.2042896133e+00
1.2043057737e+00
1.2043179138e+00
1.2043266517e+00
1.2043325540e+00
1.2043361345e+00
1.2043378477e+00
1.2043380910e+00
1.2043372031e+00
1.2043354699e+00
1.2043331259e+00
1.2043303619e+00
1.2043273278e+00
1.2043241411e+00
1.2043208898e+00
1.2043176403e+00
1.2043144393e+00
1.2043113206e+00
1.2043083058e+00
1.2043054100e+00
1.2043026412e+00
1.2043000046e+00
1.2042975014e+00
1.2042951319e+00
1.2042928945e+00
1.2042907871e+00
1.2042888066e+00
1.2042869499e+00
1.2042852130e+00
1.2042835923e+00
1.2042820831e+00
1.2042806812e+00
1.2042793817e+00
1.2042781799e+00
1.2042770706e+00
1.2042760490e+00
1.2042751098e+00
1.2042742480e+00