# vtk DataFile Version 2.0
Blank
ASCII
DATASET STRUCTURED_GRID
DIMENSIONS 101 101 2
POINTS 20402 float
0.0000000000e+00 0.0000000000e+00 0.0000000000e+00
1.0000000000e-02 0.0000000000e+00 0.0000000000e+00
2.0000000000e-02 0.0000000000e+00 0.0000000000e+00
3.0000000000e-02 0.0000000000e+00 0.0000000000e+00
4.0000000000e-02 0.0000000000e+00 0.0000000000e+00
5.0000000000e-02 0.0000000000e+00 0.0000000000e+00
6.0000000000e-02 0.0000000000e+00 0.0000000000e+00
7.0000000000e-02 0.0000000000e+00 0.0000000000e+00
8.0000000000e-02 0.0000000000e+00 0.0000000000e+00
9.0000000000e-02 0.0000000000e+00 0.0000000000e+00
1.0000000000e-01 0.0000000000e+00 0.0000000000e+00
1.1000000000e-01 0.0000000000e+00 0.0000000000e+00
1.2000000000e-01 0.0000000000e+00 0.0000000000e+00
1.3000000000e-01 0.0000000000e+00 0.0000000000e+00
1.4000000000e-01 0.0000000000e+00 0.0000000000e+00
1.5000000000e-01 0.0000000000e+00 0.0000000000e+00
1.6000000000e-01 0.0000000000e+00 0.0000000000e+00
1.7000000000e-01 0.0000000000e+00 0.0000000000e+00
1.8000000000e-01 0.0000000000e+00 0.0000000000e+00
1.9000000000e-01 0.0000000000e+00 0.0000000000e+00
2.0000000000e-01 0.0000000000e+00 0.0000000000e+00
2.1000000000e-01 0.0000000000e+00 0.0000000000e+00
2.2000000000e-01 0.0000000000e+00 0.0000000000e+00
2.3000000000e-01 0.0000000000e+00 0.0000000000e+00
2.4000000000e-01 0.0000000000e+00 0.0000000000e+00
2.5000000000e-01 0.0000000000e+00 0.0000000000e+00
2.6000000000e-01 0.0000000000e+00 0.0000000000e+00
2.7000000000e-01 0.0000000000e+00 0.0000000000e+00
2.8000000000e-01 0.0000000000e+00 0.0000000000e+00
2.9000000000e-01 0.0000000000e+00 0.0000000000e+00
3.0000000000e-01 0.0000000000e+00 0.0000000000e+00
3.1000000000e-01 0.0000000000e+00 0.0000000000e+00
3.2000000000e-01 0.0000000000e+00 0.0000000000e+00
3.3000000000e-01 0.0000000000e+00 0.0000000000e+00
3.4000000000e-01 0.0000000000e+00 0.0000000000e+00
3.5000000000e-01 0.0000000000e+00 0.0000000000e+00
3.6000000000e-01 0.0000000000e+00 0.0000000000e+00
3.7000000000e-01 0.0000000000e+00 0.0000000000e+00
3.8000000000e-01 0.0000000000e+00 0.0000000000e+00
3.9000000000e-01 0.0000000000e+00 0.0000000000e+00
4.0000000000e-01 0.0000000000e+00 0.0000000000e+00
4.1000000000e-01 0.0000000000e+00 0.0000000000e+00
4.2000000000e-01 0.0000000000e+00 0.0000000000e+00
4.3000000000e-01 0.0000000000e+00 0.0000000000e+00
4.4000000000e-01 0.0000000000e+00 0.0000000000e+00
4.5000000000e-01 0.0000000000e+00 0.0000000000e+00
4.6000000000e-01 0.0000000000e+00 0.0000000000e+00
4.7000000000e-01 0.0000000000e+00 0.0000000000e+00
4.8000000000e-01 0.0000000000e+00 0.0000000000e+00
4.9000000000e-01 0.0000000000e+00 0.0000000000e+00
5.0000000000e-01 0.0000000000e+00 0.0000000000e+00
5.1000000000e-01 0.0000000000e+00 0.0000000000e+00
5.2000000000e-01 0.0000000000e+00 0.0000000000e+00
5.3000000000e-01 0.0000000000e+00 0.0000000000e+00
5.4000000000e-01 0.0000000000e+00 0.0000000000e+00
5.5000000000e-01 0.0000000000e+00 0.0000000000e+00
5.6000000000e-01 0.0000000000e+00 0.0000000000e+00
5.7000000000e-01 0.0000000000e+00 0.0000000000e+00
5.8000000000e-01 0.0000000000e+00 0.0000000000e+00
5.9000000000e-01 0.0000000000e+00 0.0000000000e+00
6.0000000000e-01 0.0000000000e+00 0.0000000000e+00
6.1000000000e-01 0.0000000000e+00 0.0000000000e+00
6.2000000000e-01 0.0000000000e+00 0.0000000000e+00
6.3000000000e-01 0.0000000000e+00 0.0000000000e+00
6.4000000000e-01 0.0000000000e+00 0.0000000000e+00
6.5000000000e-01 0.0000000000e+00 0.0000000000e+00
6.6000000000e-01 0.0000000000e+00 0.0000000000e+00
6.7000000000e-01 0.0000000000e+00 0.0000000000e+00
6.8000000000e-01 0.0000000000e+00 0.0000000000e+00
6.9000000000e-01 0.0000000000e+00 0.0000000000e+00
7.0000000000e-01 0.0000000000e+00 0.0000000000e+00
7.1000000000e-01 0.0000000000e+00 0.0000000000e+00
7.2000000000e-01 0.0000000000e+00 0.0000000000e+00
7.3000000000e-01 0.0000000000e+00 0.0000000000e+00
7.4000000000e-01 0.0000000000e+00 0.0000000000e+00
7.5000000000e-01 0.0000000000e+00 0.0000000000e+00
7.6000000000e-01 0.0000000000e+00 0.0000000000e+00
7.7000000000e-01 0.0000000000e+00 0.0000000000e+00
7.8000000000e-01 0.0000000000e+00 0.0000000000e+00
7.9000000000e-01 0.0000000000e+00 0.0000000000e+00
8.0000000000e-01 0.0000000000e+00 0.0000000000e+00
8.1000000000e-01 0.0000000000e+00 0.0000000000e+00
8.2000000000e-01 0.0000000000e+00 0.0000000000e+00
8.3000000000e-01 0.0000000000e+00 0.0000000000e+00
8.4000000000e-01 0.0000000000e+00 0.0000000000e+00
8.5000000000e-01 0.0000000000e+00 0.0000000000e+00
8.6000000000e-01 0.0000000000e+00 0.0000000000e+00
8.7000000000e-01 0.0000000000e+00 0.0000000000e+00
8.8000000000e-01 0.0000000000e+00 0.0000000000e+00
8.9000000000e-01 0.0000000000e+00 0.0000000000e+00
9.0000000000e-01 0.0000000000e+00 0.0000000000e+00
9.1000000000e-01 0.0000000000e+00 0.0000000000e+00
9.2000000000e-01 0.0000000000e+00 0.0000000000e+00
9.3000000000e-01 0.0000000000e+00 0.0000000000e+00
9.4000000000e-01 0.0000000000e+00 0.0000000000e+00
9.5000000000e-01 0.0000000000e+00 0.0000000000e+00
9.6000000000e-01 0.0000000000e+00 0.0000000000e+00
9.7000000000e-01 0.0000000000e+00 0.0000000000e+00
9.8000000000e-01 0.0000000000e+00 0.0000000000e+00
9.9000000000e-01 0.0000000000e+00 0.0000000000e+00
1.0000000000e+00 0.0000000000e+00 0.0000000000e+00
0.0000000000e+00 1.0000000000e-02 0.0000000000e+00
1.0000000000e-02 1.0000000000e-02 0.0000000000e+00
2.0000000000e-02 1.0000000000e-02 0.0000000000e+00
3.0000000000e-02 1.0000000000e-02 0.0000000000e+00
4.0000000000e-02 1.0000000000e-02 0.0000000000e+00
5.0000000000e-02 1.0000000000e-02 0.0000000000e+00
6.0000000000e-02 1.0000000000e-02 0.0000000000e+00
7.0000000000e-02 1.0000000000e-02 0.0000000000e+00
8.0000000000e-02 1.0000000000e-02 0.0000000000e+00
9.0000000000e-02 1.0000000000e-02 0.0000000000e+00
1.0000000000e-01 1.0000000000e-02 0.0000000000e+00
1.1000000000e-01 1.0000000000e-02 0.0000000000e+00
1.2000000000e-01 1.0000000000e-02 0.0000000000e+00
1.3000000000e-01 1.0000000000e-02 0.0000000000e+00
1.4000000000e-01 1.0000000000e-02 0.0000000000e+00
1.5000000000e-01 1.0000000000e-02 0.0000000000e+00
1.6000000000e-01 1.0000000000e-02 0.0000000000e+00
1.7000000000e-01 1.0000000000e-02 0.0000000000e+00
1.8000000000e-01 1.0000000000e-02 0.0000000000e+00
1.9000000000e-01 1.0000000000e-02 0.0000000000e+00
2.0000000000e-01 1.0000000000e-02 0.0000000000e+00
2.1000000000e-01 1.0000000000e-02 0.0000000000e+00
2.2000000000e-01 1.0000000000e-02 0.0000000000e+00
2.3000000000e-01 1.0000000000e-02 0.0000000000e+00
2.4000000000e-01 1.0000000000e-02 0.0000000000e+00
2.5000000000e-01 1.0000000000e-02 0.0000000000e+00
2.6000000000e-01 1.0000000000e-02 0.0000000000e+00
2.7000000000e-01 1.0000000000e-02 0.0000000000e+00
2.8000000000e-01 1.0000000000e-02 0.0000000000e+00
2.9000000000e-01 1.0000000000e-02 0.0000000000e+00
3.0000000000e-01 1.0000000000e-02 0.0000000000e+00
3.1000000000e-01 1.0000000000e-02 0.0000000000e+00
3.2000000000e-01 1.0000000000e-02 0.0000000000e+00
3.3000000000e-01 1.0000000000e-02 0.0000000000e+00
3.4000000000e-01 1.0000000000e-02 0.0000000000e+00
3.5000000000e-01 1.0000000000e-02 0.0000000000e+00
3.6000000000e-01 1.0000000000e-02 0.0000000000e+00
3.7000000000e-01 1.0000000000e-02 0.0000000000e+00
3.8000000000e-01 1.0000000000e-02 0.0000000000e+00
3.9000000000e-01 1.0000000000e-02 0.0000000000e+00
4.0000000000e-01 1.0000000000e-02 0.0000000000e+00
4.1000000000e-01 1.0000000000e-02 0.0000000000e+00
4.2000000000e-01 1.0000000000e-02 0.0000000000e+00
4.3000000000e-01 1.0000000000e-02 0.0000000000e+00
4.4000000000e-01 1.0000000000e-02 0.0000000000e+00
4.5000000000e-01 1.0000000000e-02 0.0000000000e+00
4.6000000000e-01 1.0000000000e-02 0.0000000000e+00
4.7000000000e-01 1.0000000000e-02 0.0000000000e+00
4.8000000000e-01 1.0000000000e-02 0.0000000000e+00
4.9000000000e-01 1.0000000000e-02 0.0000000000e+00
5.0000000000e-01 1.0000000000e-02 0.0000000000e+00
5.1000000000e-01 1.0000000000e-02 0.0000000000e+00
5.2000000000e-01 1.0000000000e-02 0.0000000000e+00
5.3000000000e-01 1.0000000000e-02 0.0000000000e+00
5.4000000000e-01 1.0000000000e-02 0.0000000000e+00
5.5000000000e-01 1.0000000000e-02 0.0000000000e+00
5.6000000000e-01 1.0000000000e-02 0.0000000000e+00
5.7000000000e-01 1.0000000000e-02 0.0000000000e+00
5.8000000000e-01 1.0000000000e-02 0.0000000000e+00
5.9000000000e-01 1.0000000000e-02 0.0000000000e+00
6.0000000000e-01 1.0000000000e-02 0.0000000000e+00
6.1000000000e-01 1.0000000000e-02 0.0000000000e+00
6.2000000000e-01 1.0000000000e-02 0.0000000000e+00
6.3000000000e-01 1.0000000000e-02 0.0000000000e+00
6.4000000000e-01 1.0000000000e-02 0.0000000000e+00
6.5000000000e-01 1.0000000000e-02 0.0000000000e+00
6.6000000000e-01 1.0000000000e-02 0.0000000000e+00
6.7000000000e-01 1.0000000000e-02 0.0000000000e+00
6.8000000000e-01 1.0000000000e-02 0.0000000000e+00
6.9000000000e-01 1.0000000000e-02 0.0000000000e+00
7.0000000000e-01 1.0000000000e-02 0.0000000000e+00
7.1000000000e-01 1.0000000000e-02 0.0000000000e+00
7.2000000000e-01 1.0000000000e-02 0.0000000000e+00
7.3000000000e-01 1.0000000000e-02 0.0000000000e+00
7.4000000000e-01 1.0000000000e-02 0.0000000000e+00
7.5000000000e-01 1.0000000000e-02 0.0000000000e+00
7.6000000000e-01 1.0000000000e-02 0.0000000000e+00
7.7000000000e-01 1.0000000000e-02 0.0000000000e+00
7.8000000000e-01 1.0000000000e-02 0.0000000000e+00
7.9000000000e-01 1.0000000000e-02 0.0000000000e+00
8.0000000000e-01 1.0000000000e-02 0.0000000000e+00
8.1000000000e-01 1.0000000000e-02 0.0000000000e+00
8.2000000000e-01 1.0000000000e-02 0.0000000000e+00
8.3000000000e-01 1.0000000000e-02 0.0000000000e+00
8.4000000000e-01 1.0000000000e-02 0.0000000000e+00
8.5000000000e-01 1.0000000000e-02 0.0000000000e+00
8.6000000000e-01 1.0000000000e-02 0.0000000000e+00
8.7000000000e-01 1.0000000000e-02 0.0000000000e+00
8.8000000000e-01 1.0000000000e-02 0.0000000000e+00
8.9000000000e-01 1.0000000000e-02 0.0000000000e+00
9.0000000000e-01 1.0000000000e-02 0.0000000000e+00
9.1000000000e-01 1.0000000000e-02 0.0000000000e+00
9.2000000000e-01 1.0000000000e-02 0.0000000000e+00
[...]
CELL_DATA 10000

SCALARS massDensity float
LOOKUP_TABLE default
1.2002481361e+00
1.2002313434e+00
1.2002737396e+00
1.2003323348e+00
1.2004069158e+00
1.2004969411e+00
1.2006015480e+00
1.2007196026e+00
1.2008497519e+00
1.2009904779e+00
1.2011401433e+00
1.2012970382e+00
1.2014594195e+00
1.2016255508e+00
1.2017937349e+00
1.2019623469e+00
1.2021298581e+00
1.2022948606e+00
1.2024560824e+00
1.2026124024e+00
1.2027628563e+00
1.2029066429e+00
1.2030431218e+00
1.2031718112e+00
1.2032923799e+00
1.2034046386e+00
1.2035085277e+00
1.2036041044e+00
1.2036915281e+00
1.2037710466e+00
1.2038429799e+00
1.2039077072e+00
1.2039656514e+00
1.2040172677e+00
1.2040630306e+00
1.2041034239e+00
1.2041389310e+00
1.2041700274e+00
1.2041971735e+00
1.2042208102e+00
1.2042413541e+00
1.2042591949e+00
1.2042746936e+00
1.2042881815e+00
1.2042999596e+00
1.2043102996e+00
1.2043194442e+00
1.2043276089e+00
1.2043349832e+00
1.2043417326e+00
1.2043480005e+00
1.2043539101e+00
1.2043595661e+00
1.2043650568e+00
1.2043704562e+00
1.2043758248e+00
1.2043812119e+00
1.2043866565e+00
1.2043921887e+00
1.2043978307e+00
1.2044035982e+00
1.2044095002e+00
1.2044155410e+00
1.2044217194e+00
1.2044280307e+00
1.2044344656e+00
1.2044410120e+00
1.2044476541e+00
1.2044543737e+00
1.2044611493e+00
1.2044679579e+00
1.2044747733e+00
1.2044815680e+00
1.2044883119e+00
1.2044949742e+00
1.2045015214e+00
1.2045079197e+00
1.2045141333e+00
1.2045201261e+00
1.2045258602e+00
1.2045312978e+00
1.2045363995e+00
1.2045411260e+00
1.2045454363e+00
1.2045492892e+00
1.2045526413e+00
1.2045554481e+00
1.2045576614e+00
1.2045592293e+00
1.2045600926e+00
1.2045601833e+00
1.2045594180e+00
1.2045576932e+00
1.2045548749e+00
1.2045507882e+00
1.2045452018e+00
1.2045378157e+00
1.2045282597e+00
1.2045161441e+00
1.2045463522e+00
1.2002313434e+00
1.2002073191e+00
1.2002460672e+00
1.2003026599e+00
1.2003763139e+00
1.2004661128e+00
1.2005709567e+00
1.2006895574e+00
1.2008204635e+00
1.2009620891e+00
1.2011127527e+00
1.2012707108e+00
1.2014341982e+00
1.2016014591e+00
1.2017707838e+00
1.2019405338e+00
1.2021091718e+00
1.2022752788e+00
1.2024375759e+00
1.2025949323e+00
1.2027463780e+00
1.2028911036e+00
1.2030284640e+00
1.2031579713e+00
1.2032792908e+00
1.2033922291e+00
1.2034967248e+00
1.2035928329e+00
1.2036807127e+00
1.2037606110e+00
1.2038328490e+00
1.2038978060e+00
1.2039559068e+00
1.2040076074e+00
1.2040533842e+00
1.2040937221e+00
1.2041291061e+00
1.2041600125e+00
1.2041869032e+00
1.2042102195e+00
1.2042303787e+00
1.2042477709e+00
1.2042627574e+00
1.2042756694e+00
1.2042868080e+00
1.2042964447e+00
1.2043048223e+00
1.2043121560e+00
1.2043186356e+00
1.2043244266e+00
1.2043296727e+00
1.2043344978e+00
1.2043390073e+00
1.2043432907e+00
1.2043474232e+00
1.2043514672e+00
1.2043554739e+00
1.2043594849e+00
1.2043635331e+00
1.2043676443e+00
1.2043718374e+00
1.2043761263e+00
1.2043805192e+00
1.2043850208e+00
1.2043896312e+00
1.2043943481e+00
1.2043991652e+00
1.2044040743e+00
1.2044090641e+00
1.2044141218e+00
1.2044192317e+00
1.2044243771e+00
1.2044295387e+00
1.2044346966e+00
1.2044398284e+00
1.2044449114e+00
1.2044499205e+00
1.2044548307e+00
1.2044596146e+00
1.2044642453e+00
1.2044686934e+00
1.2044729300e+00
1.2044769240e+00
1.2044806444e+00
1.2044840579e+00
1.2044871311e+00
1.2044898275e+00
1.2044921095e+00
1.2044939352e+00
1.2044952600e+00
1.2044960325e+00
1.2044961951e+00
1.2044956800e+00
1.2044944092e+00
1.2044922925e+00
1.2044892313e+00
1.2044851297e+00
1.2044799281e+00
1.2044736825e+00
1.2045139503e+00
1.2002737396e+00
1.2002460672e+00
1.2002827434e+00
1.2003377462e+00
1.2004101107e+00
1.2004987853e+00
1.2006025757e+00
1.2007201375e+00
1.2008499831e+00
1.2009905102e+00
1.2011400277e+00
1.2012967935e+00
1.2014590441e+00
1.2016250327e+00
1.2017930558e+00
1.2019614865e+00
1.2021287952e+00
1.2022935750e+00
1.2024545541e+00
1.2026106131e+00
1.2027607881e+00
1.2029042791e+00
1.2030404458e+00
1.2031688077e+00
1.2032890334e+00
1.2034009344e+00
1.2035044510e+00
1.2035996409e+00
1.2036866632e+00
1.2037657658e+00
1.2038372679e+00
1.2039015481e+00
1.2039590282e+00
1.2040101620e+00
1.2040554219e+00
1.2040952897e+00
1.2041302459e+00
1.2041607631e+00
1.2041872987e+00
1.2042102902e+00
1.2042301504e+00
1.2042472657e+00
1.2042619936e+00
1.2042746620e+00
1.2042855687e+00
1.2042949823e+00
1.2043031431e+00
1.2043102641e+00
1.2043165330e+00
1.2043221140e+00
1.2043271493e+00
1.2043317617e+00
1.2043360560e+00
1.2043401211e+00
1.2043440319e+00
1.2043478506e+00
1.2043516288e+00
1.2043554082e+00
1.2043592224e+00
1.2043630974e+00
1.2043670535e+00
1.2043711048e+00
1.2043752613e+00
1.2043795282e+00
1.2043839077e+00
1.2043883979e+00
1.2043929950e+00
1.2043976915e+00
1.2044024785e+00
1.2044073442e+00
1.2044122756e+00
1.2044172569e+00
1.2044222717e+00
1.2044273008e+00
1.2044323249e+00
1.2044373220e+00
1.2044422700e+00
1.2044471445e+00
1.2044519210e+00
1.2044565727e+00
1.2044610731e+00
1.2044653931e+00
1.2044695041e+00
1.2044733748e+00
1.2044769738e+00
1.2044802672e+00
1.2044832206e+00
1.2044857962e+00
1.2044879553e+00
1.2044896549e+00
1.2044908500e+00
1.2044914912e+00
1.2044915270e+00
1.2044909033e+00
1.2044895704e+00
1.2044874907e+00
1.2044846609e+00
1.2044811514e+00
1.2044771824e+00
1.2045224822e+00
1.2003323348e+00
1.2003026599e+00
1.2003377462e+00
1.2003912213e+00
1.2004621035e+00
1.2005492966e+00
1.2006515692e+00
1.2007675469e+00
1.2008957289e+00
1.2010345049e+00
1.2011821884e+00
1.2013370424e+00
1.2014973178e+00
1.2016612793e+00
1.2018272416e+00
1.2019935918e+00
1.2021588189e+00
1.2023215294e+00
1.2024804691e+00
1.2026345299e+00
1.2027827629e+00
1.2029243769e+00
1.2030587432e+00
1.2031853870e+00
1.2033039850e+00
1.2034143517e+00
1.2035164317e+00
1.2036102829e+00
1.2036960659e+00
1.2037740258e+00
1.2038444808e+00
1.2039078050e+00
1.2039644167e+00
1.2040147640e+00
1.2040593144e+00
1.2040985429e+00
1.2041329245e+00
1.2041629250e+00
1.2041889956e+00
1.2042115672e+00
1.2042310470e+00
1.2042478153e+00
1.2042622242e+00
1.2042745965e+00
1.2042852254e+00
1.2042943754e+00
1.2043022829e+00
1.2043091577e+00
1.2043151846e+00
1.2043205252e+00
1.2043253199e+00
1.2043296895e+00
1.2043337376e+00
1.2043375523e+00
1.2043412073e+00
1.2043447649e+00
1.2043482761e+00
1.2043517829e+00
1.2043553190e+00
1.2043589112e+00
1.2043625800e+00
1.2043663409e+00
1.2043702044e+00
1.2043741775e+00
1.2043782630e+00
1.2043824615e+00
1.2043867696e+00
1.2043911828e+00
1.2043956931e+00
1.2044002915e+00
1.2044049662e+00
1.2044097047e+00
1.2044144917e+00
1.2044193114e+00
1.2044241457e+00
1.2044289763e+00
1.2044337819e+00
1.2044385419e+00
1.2044432328e+00
1.2044478312e+00
1.2044523114e+00
1.2044566477e+00
1.2044608119e+00
1.2044647757e+00
1.2044685084e+00
1.2044719789e+00
1.2044751535e+00
1.2044779980e+00
1.2044804754e+00
1.2044825481e+00
1.2044841764e+00
1.2044853212e+00
1.2044859436e+00
1.2044860106e+00
1.2044854993e+00
1.2044844099e+00
1.2044827824e+00
1.2044807288e+00
1.2044784765e+00
1.2045270075e+00
1.2004069158e+00
1.2003763139e+00
1.2004101107e+00
1.2004621035e+00
1.2005313501e+00
1.2006167640e+00
1.2007171092e+00
1.2008310117e+00
1.2009569707e+00
1.2010933868e+00
1.2012385837e+00
1.2013908447e+00
1.2015484378e+00
1.2017096529e+00
1.2018728247e+00
1.2020363666e+00
1.2021987874e+00
1.2023587185e+00
1.2025149232e+00
1.2026663148e+00
1.2028119583e+00
1.2029510798e+00
1.2030830601e+00
1.2032074369e+00
1.2033238922e+00
1.2034322480e+00
1.2035324501e+00
1.2036245596e+00
1.2037087344e+00
1.2037852192e+00
1.2038543267e+00
1.2039164271e+00
1.2039719315e+00
1.2040212817e+00
1.2040649368e+00
1.2041033643e+00
1.2041370300e+00
1.2041663919e+00
1.2041918921e+00
1.2042139536e+00
1.2042329754e+00
1.2042493305e+00
1.2042633637e+00
1.2042753912e+00
1.2042857003e+00
1.2042945500e+00
1.2043021717e+00
1.2043087709e+00
1.2043145287e+00
1.2043196034e+00
1.2043241326e+00
1.2043282348e+00
1.2043320117e+00
1.2043355497e+00
1.2043389220e+00
1.2043421893e+00
1.2043454027e+00
1.2043486036e+00
1.2043518262e+00
1.2043550972e+00
1.2043584381e+00
1.2043618646e+00
1.2043653888e+00
1.2043690182e+00
1.2043727577e+00
1.2043766086e+00
1.2043805703e+00
1.2043846390e+00
1.2043888098e+00
1.2043930750e+00
1.2043974261e+00
1.2044018517e+00
1.2044063405e+00
1.2044108781e+00
1.2044154503e+00
1.2044200400e+00
1.2044246305e+00
1.2044292023e+00
1.2044337361e+00
1.2044382098e+00
1.2044426019e+00
1.2044468878e+00
1.2044510432e+00
1.2044550409e+00
1.2044588542e+00
1.2044624530e+00
1.2044658077e+00
1.2044688859e+00
1.2044716556e+00
1.2044740826e+00
1.2044761344e+00
1.2044777790e+00
1.2044789891e+00
1.2044797445e+00
1.2044800395e+00
1.2044798905e+00
1.2044793515e+00
1.2044785299e+00
1.2044776092e+00
1.2045280586e+00
1.2004969411e+00
1.2004661128e+00
1.2004987853e+00
1.2005492966e+00
1.2006167640e+00
1.2007001305e+00
1.2007981827e+00
1.2009095609e+00
1.2010327853e+00
1.2011662741e+00
1.2013083785e+00
1.2014574050e+00
1.2016116540e+00
1.2017694419e+00
1.2019291374e+00
1.2020891805e+00
1.2022481128e+00
1.2024045898e+00
1.2025574038e+00
1.2027054882e+00
1.2028479317e+00
1.2029839751e+00
1.2031130172e+00
1.2032346047e+00
1.2033484312e+00
1.2034543225e+00
1.2035522302e+00
1.2036422140e+00
1.2037244327e+00
1.2037991255e+00
1.2038666017e+00
1.2039272233e+00
1.2039813946e+00
1.2040295473e+00
1.2040721316e+00
1.2041096041e+00
1.2041424207e+00
1.2041710281e+00
1.2041958588e+00
1.2042173249e+00
1.2042358162e+00
1.2042516961e+00
1.2042653010e+00
1.2042769390e+00
1.2042868901e+00
1.2042954065e+00
1.2043027140e+00
1.2043090125e+00
1.2043144787e+00
1.2043192667e+00
1.2043235106e+00
1.2043273263e+00
1.2043308128e+00
1.2043340548e+00
1.2043371235e+00
1.2043400792e+00
1.2043429716e+00
1.2043458422e+00
1.2043487243e+00
1.2043516455e+00
1.2043546270e+00
1.2043576859e+00
1.2043608345e+00
1.2043640821e+00
1.2043674341e+00
1.2043708943e+00
1.2043744627e+00
1.2043781388e+00
1.2043819184e+00
1.2043857974e+00
1.2043897685e+00
1.2043938243e+00
1.2043979546e+00
1.2044021495e+00
1.2044063963e+00
1.2044106825e+00
1.2044149927e+00
1.2044193123e+00
1.2044236235e+00
1.2044279091e+00
1.2044321489e+00
1.2044363230e+00
1.2044404087e+00
1.2044443834e+00
1.2044482218e+00
1.2044518985e+00
1.2044553857e+00
1.2044586560e+00
1.2044616797e+00
1.2044644288e+00
1.2044668749e+00
1.2044689935e+00
1.2044707636e+00
1.2044721741e+00
1.2044732259e+00
1.2044739407e+00
1.2044743677e+00
1.2044745939e+00
1.2044747485e+00
1.2045261368e+00
1.2006015480e+00
1.2005709567e+00
1.2006025757e+00
1.2006515692e+00
1.2007171092e+00
1.2007981827e+00
1.2008936067e+00
1.2010020550e+00
1.2011220745e+00
1.2012521190e+00
1.2013905695e+00
1.2015357725e+00
1.2016860612e+00
1.2018397938e+00
1.2019953726e+00
1.2021512784e+00
1.2023060840e+00
1.2024584820e+00
1.2026072915e+00
1.2027514772e+00
1.2028901487e+00
1.2030225711e+00
1.2031481573e+00
1.2032664709e+00
1.2033772130e+00
1.2034802187e+00
1.2035754411e+00
1.2036629429e+00
1.2037428787e+00
1.2038154854e+00
1.2038810640e+00
1.2039399698e+00
1.2039925959e+00
1.2040393647e+00
1.2040807135e+00
1.2041170876e+00
1.2041489300e+00
1.2041766755e+00
1.2042007437e+00
1.2042215355e+00
1.2042394288e+00
1.2042547765e+00
1.2042679049e+00
1.2042791128e+00
1.2042886717e+00
1.2042968263e+00
1.2043037950e+00
1.2043097720e+00
1.2043149284e+00
1.2043194136e+00
1.2043233578e+00
1.2043268732e+00
1.2043300562e+00
1.2043329889e+00
1.2043357410e+00
1.2043383707e+00
1.2043409273e+00
1.2043434510e+00
1.2043459754e+00
1.2043485274e+00
1.2043511291e+00
1.2043537973e+00
1.2043565459e+00
1.2043593844e+00
1.2043623204e+00
1.2043653580e+00
1.2043685003e+00
1.2043717472e+00
1.2043750982e+00
1.2043785499e+00
1.2043820991e+00
1.2043857395e+00
1.2043894655e+00
1.2043932683e+00
1.2043971401e+00
1.2044010698e+00
1.2044050472e+00
1.2044090592e+00
1.2044130932e+00
1.2044171336e+00
1.2044211654e+00
1.2044251705e+00
1.2044291314e+00
1.2044330271e+00
1.2044368374e+00
1.2044405388e+00
1.2044441088e+00
1.2044475219e+00
1.2044507541e+00
1.2044537801e+00
1.2044565775e+00
1.2044591250e+00
1.2044614079e+00
1.2044634175e+00
1.2044651578e+00
1.2044666466e+00
1.2044679229e+00
1.2044690478e+00
1.2044701050e+00
1.2045216647e+00
1.2007196026e+00
1.2006895574e+00
1.2007201375e+00
1.2007675469e+00
1.2008310117e+00
1.2009095609e+00
1.2010020550e+00
1.2011072035e+00
1.2012235966e+00
1.2013497251e+00
1.2014840165e+00
1.2016248566e+00
1.2017706278e+00
1.2019197286e+00
1.2020706100e+00
1.2022217912e+00
1.2023718904e+00
1.2025196343e+00
1.2026638812e+00
1.2028036235e+00
1.2029380025e+00
1.2030663035e+00
1.2031879625e+00
1.2033025554e+00
1.2034097977e+00
1.2035095297e+00
1.2036017106e+00
1.2036864015e+00
1.2037637565e+00
1.2038340053e+00
1.2038974432e+00
1.2039544141e+00
1.2040053015e+00
1.2040505140e+00
1.2040904767e+00
1.2041256202e+00
1.2041563741e+00
1.2041831584e+00
1.2042063795e+00
1.2042264243e+00
1.2042436583e+00
1.2042584221e+00
1.2042710307e+00
1.2042817724e+00
1.2042909093e+00
1.2042986772e+00
1.2043052871e+00
1.2043109259e+00
1.2043157588e+00
1.2043199299e+00
1.2043235647e+00
1.2043267717e+00
1.2043296439e+00
1.2043322606e+00
1.2043346892e+00
1.2043369866e+00
1.2043392001e+00
1.2043413696e+00
1.2043435276e+00
1.2043457013e+00
1.2043479121e+00
1.2043501782e+00
1.2043525129e+00
1.2043549278e+00
1.2043574305e+00
1.2043600276e+00
1.2043627226e+00
1.2043655185e+00
1.2043684156e+00
1.2043714142e+00
1.2043745119e+00
1.2043777068e+00
1.2043809944e+00
1.2043843707e+00
1.2043878292e+00
1.2043913638e+00
1.2043949661e+00
1.2043986280e+00
1.2044023388e+00
1.2044060882e+00
1.2044098632e+00
1.2044136509e+00
1.2044174356e+00
1.2044212021e+00
1.2044249318e+00
1.2044286068e+00
1.2044322065e+00
1.2044357109e+00
1.2044390982e+00
1.2044423485e+00
1.2044454415e+00
1.2044483610e+00
1.2044510934e+00
1.2044536328e+00
1.2044559802e+00
1.2044581491e+00
1.2044601643e+00
1.2044620653e+00
1.2044638991e+00
1.2045149971e+00
1.2008497519e+00
1.2008204635e+00
1.2008499831e+00
1.2008957289e+00
1.2009569707e+00
1.2010327853e+00
1.2011220745e+00
1.2012235966e+00
1.2013359845e+00
1.2014577809e+00
1.2015874588e+00
1.2017234592e+00
1.2018642111e+00
1.2020081689e+00
1.2021538291e+00
1.2022997641e+00
1.2024446335e+00
1.2025872115e+00
1.2027263914e+00
1.2028612053e+00
1.2029908213e+00
1.2031145549e+00
1.2032318604e+00
1.2033423342e+00
1.2034457013e+00
1.2035418129e+00
1.2036306300e+00
1.2037122162e+00
1.2037867206e+00
1.2038543689e+00
1.2039154456e+00
1.2039702858e+00
1.2040192590e+00
1.2040627609e+00
1.2041012011e+00
1.2041349955e+00
1.2041645572e+00
1.2041902916e+00
1.2042125889e+00
1.2042318220e+00
1.2042483418e+00
1.2042624758e+00
1.2042745264e+00
1.2042847708e+00
1.2042934602e+00
1.2043008211e+00
1.2043070560e+00
1.2043123443e+00
1.2043168444e+00
1.2043206947e+00
1.2043240156e+00
1.2043269111e+00
1.2043294708e+00
1.2043317708e+00
1.2043338762e+00
1.2043358414e+00
1.2043377128e+00
1.2043395285e+00
1.2043413208e+00
1.2043431158e+00
1.2043449356e+00
1.2043467976e+00
1.2043487167e+00
1.2043507039e+00
1.2043527692e+00
1.2043549191e+00
1.2043571599e+00
1.2043594949e+00
1.2043619277e+00
1.2043644594e+00
1.2043670915e+00
1.2043698229e+00
1.2043726537e+00
1.2043755809e+00
1.2043786028e+00
1.2043817151e+00
1.2043849141e+00
1.2043881936e+00
1.2043915481e+00
1.2043949692e+00
1.2043984493e+00
1.2044019774e+00
1.2044055435e+00
1.2044091340e+00
1.2044127360e+00
1.2044163338e+00
1.2044199119e+00
1.2044234526e+00
1.2044269392e+00
1.2044303537e+00
1.2044336805e+00
1.2044369044e+00
1.2044400146e+00
1.2044430037e+00
1.2044458714e+00
1.2044486231e+00
1.2044512733e+00
1.2044538417e+00
1.2044563510e+00
1.2045064413e+00
1.2009904779e+00
1.2009620891e+00
1.2009905102e+00
1.2010345049e+00
1.2010933868e+00
1.2011662741e+00
1.2012521190e+00
1.2013497251e+00
1.2014577809e+00
1.2015748786e+00
1.2016995513e+00
1.2018302917e+00
1.2019655909e+00
1.2021039548e+00
1.2022439405e+00
1.2023841687e+00
1.2025233545e+00
1.2026603146e+00
1.2027939899e+00
1.2029234465e+00
1.2030478908e+00
1.2031666628e+00
1.2032792443e+00
1.2033852467e+00
1.2034844117e+00
1.2035765965e+00
1.2036617689e+00
1.2037399906e+00
1.2038114094e+00
1.2038762420e+00
1.2039347656e+00
1.2039873015e+00
1.2040342071e+00
1.2040758619e+00
1.2041126602e+00
1.2041450004e+00
1.2041732797e+00
1.2041978855e+00
1.2042191925e+00
1.2042375569e+00
1.2042533149e+00
1.2042667793e+00
1.2042782396e+00
1.2042879602e+00
1.2042961815e+00
1.2043031195e+00
1.2043089677e+00
1.2043138975e+00
1.2043180598e+00
1.2043215870e+00
1.2043245940e+00
1.2043271803e+00
1.2043294311e+00
1.2043314197e+00
1.2043332079e+00
1.2043348484e+00
1.2043363853e+00
1.2043378558e+00
1.2043392908e+00
1.2043407163e+00
1.2043421533e+00
1.2043436202e+00
1.2043451312e+00
1.2043466989e+00
1.2043483328e+00
1.2043500419e+00
1.2043518324e+00
1.2043537105e+00
1.2043556801e+00
1.2043577458e+00
1.2043599096e+00
1.2043621746e+00
1.2043645416e+00
1.2043670121e+00
1.2043695857e+00
1.2043722628e+00
1.2043750410e+00
1.2043779195e+00
1.2043808941e+00
1.2043839619e+00
1.2043871169e+00
1.2043903538e+00
1.2043936642e+00
1.2043970401e+00
1.2044004707e+00
1.2044039454e+00
1.2044074509e+00
1.2044109747e+00
1.2044145018e+00
1.2044180189e+00
1.2044215116e+00
1.2044249680e+00
1.2044283770e+00
1.2044317316e+00
1.2044350273e+00
1.2044382649e+00
1.2044414479e+00
1.2044445835e+00
1.2044476757e+00
1.2044962754e+00
1.2011401433e+00
1.2011127527e+00
1.2011400277e+00
1.2011821884e+00
1.2012385837e+00
1.2013083785e+00
1.2013905695e+00
1.2014840165e+00
1.2015874588e+00
1.2016995513e+00
1.2018188823e+00
1.2019440111e+00
1.2020734853e+00
1.2022058775e+00
1.2023397992e+00
1.2024739340e+00
1.2026070464e+00
1.2027380085e+00
1.2028658029e+00
1.2029895416e+00
1.2031084626e+00
1.2032219410e+00
1.2033294798e+00
1.2034307137e+00
1.2035253956e+00
1.2036133949e+00
1.2036946812e+00
1.2037693189e+00
1.2038374496e+00
1.2038992850e+00
1.2039550899e+00
1.2040051749e+00
1.2040498810e+00
1.2040895729e+00
1.2041246267e+00
1.2041554240e+00
1.2041823429e+00
1.2042057540e+00
1.2042260135e+00
1.2042434616e+00
1.2042584176e+00
1.2042711798e+00
1.2042820231e+00
1.2042911992e+00
1.2042989364e+00
1.2043054403e+00
1.2043108944e+00
1.2043154617e+00
1.2043192857e+00
1.2043224919e+00
1.2043251896e+00
1.2043274732e+00
1.2043294241e+00
1.2043311115e+00
1.2043325948e+00
1.2043339237e+00
1.2043351407e+00
1.2043362812e+00
1.2043373753e+00
1.2043384477e+00
1.2043395197e+00
1.2043406084e+00
1.2043417292e+00
1.2043428942e+00
1.2043441144e+00
1.2043453985e+00
1.2043467550e+00
1.2043481902e+00
1.2043497109e+00
1.2043513219e+00
1.2043530287e+00
1.2043548349e+00
1.2043567452e+00
1.2043587621e+00
1.2043608895e+00
1.2043631287e+00
1.2043654823e+00
1.2043679506e+00
1.2043705345e+00
1.2043732325e+00
1.2043760438e+00
1.2043789647e+00
1.2043819922e+00
1.2043851202e+00
1.2043883429e+00
1.2043916517e+00
1.2043950384e+00
1.2043984923e+00
1.2044020032e+00
1.2044055592e+00
1.2044091496e+00
1.2044127629e+00
1.2044163900e+00
1.2044200219e+00
1.2044236529e+00
1.2044272779e+00
1.2044308943e+00
1.2044344985e+00
1.2044380842e+00
1.2044847597e+00
1.2012970382e+00
1.2012707108e+00
1.2012967935e+00
1.2013370424e+00
1.2013908447e+00
1.2014574050e+00
1.2015357725e+00
1.2016248566e+00
1.2017234592e+00
1.2018302917e+00
1.2019440111e+00
1.2020632367e+00
1.2021865869e+00
1.2023126940e+00
1.2024402383e+00
1.2025679591e+00
1.2026946837e+00
1.2028193327e+00
1.2029409425e+00
1.2030586639e+00
1.2031717777e+00
1.2032796871e+00
1.2033819254e+00
1.2034781445e+00
1.2035681157e+00
1.2036517150e+00
1.2037289197e+00
1.2037997913e+00
1.2038644699e+00
1.2039231573e+00
1.2039761094e+00
1.2040236217e+00
1.2040660212e+00
1.2041036544e+00
1.2041368804e+00
1.2041660611e+00
1.2041915570e+00
1.2042137187e+00
1.2042328851e+00
1.2042493779e+00
1.2042635004e+00
1.2042755344e+00
1.2042857406e+00
1.2042943569e+00
1.2043015994e+00
1.2043076624e+00
1.2043127195e+00
1.2043169248e+00
1.2043204138e+00
1.2043233053e+00
1.2043257025e+00
1.2043276948e+00
1.2043293589e+00
1.2043307607e+00
1.2043319558e+00
1.2043329920e+00
1.2043339092e+00
1.2043347415e+00
1.2043355171e+00
1.2043362604e+00
1.2043369914e+00
1.2043377277e+00
1.2043384835e+00
1.2043392721e+00
1.2043401039e+00
1.2043409894e+00
1.2043419366e+00
1.2043429543e+00
1.2043440491e+00
1.2043452287e+00
1.2043464987e+00
1.2043478662e+00