# vtk DataFile Version 2.0
Blank
ASCII
DATASET STRUCTURED_GRID
DIMENSIONS 101 101 2
POINTS 20402 float
0.0000000000e+00 0.0000000000e+00 0.0000000000e+00
1.0000000000e-02 0.0000000000e+00 0.0000000000e+00
2.0000000000e-02 0.0000000000e+00 0.0000000000e+00
3.0000000000e-02 0.0000000000e+00 0.0000000000e+00
4.0000000000e-02 0.0000000000e+00 0.0000000000e+00
5.0000000000e-02 0.0000000000e+00 0.0000000000e+00
6.0000000000e-02 0.0000000000e+00 0.0000000000e+00
7.0000000000e-02 0.0000000000e+00 0.0000000000e+00
8.0000000000e-02 0.0000000000e+00 0.0000000000e+00
9.0000000000e-02 0.0000000000e+00 0.0000000000e+00
1.0000000000e-01 0.0000000000e+00 0.0000000000e+00
1.1000000000e-01 0.0000000000e+00 0.0000000000e+00
1.2000000000e-01 0.0000000000e+00 0.0000000000e+00
1.3000000000e-01 0.0000000000e+00 0.0000000000e+00
1.4000000000e-01 0.0000000000e+00 0.0000000000e+00
1.5000000000e-01 0.0000000000e+00 0.0000000000e+00
1.6000000000e-01 0.0000000000e+00 0.0000000000e+00
1.7000000000e-01 0.0000000000e+00 0.0000000000e+00
1.8000000000e-01 0.0000000000e+00 0.0000000000e+00
1.9000000000e-01 0.0000000000e+00 0.0000000000e+00
2.0000000000e-01 0.0000000000e+00 0.0000000000e+00
2.1000000000e-01 0.0000000000e+00 0.0000000000e+00
2.2000000000e-01 0.0000000000e+00 0.0000000000e+00
2.3000000000e-01 0.0000000000e+00 0.0000000000e+00
2.4000000000e-01 0.0000000000e+00 0.0000000000e+00
2.5000000000e-01 0.0000000000e+00 0.0000000000e+00
2.6000000000e-01 0.0000000000e+00 0.0000000000e+00
2.7000000000e-01 0.0000000000e+00 0.0000000000e+00
2.8000000000e-01 0.0000000000e+00 0.0000000000e+00
2.9000000000e-01 0.0000000000e+00 0.0000000000e+00
3.0000000000e-01 0.0000000000e+00 0.0000000000e+00
3.1000000000e-01 0.0000000000e+00 0.0000000000e+00
3.2000000000e-01 0.0000000000e+00 0.0000000000e+00
3.3000000000e-01 0.0000000000e+00 0.0000000000e+00
3.4000000000e-01 0.0000000000e+00 0.0000000000e+00
3.5000000000e-01 0.0000000000e+00 0.0000000000e+00
3.6000000000e-01 0.0000000000e+00 0.0000000000e+00
3.7000000000e-01 0.0000000000e+00 0.0000000000e+00
3.8000000000e-01 0.0000000000e+00 0.0000000000e+00
3.9000000000e-01 0.0000000000e+00 0.0000000000e+00
4.0000000000e-01 0.0000000000e+00 0.0000000000e+00
4.1000000000e-01 0.0000000000e+00 0.0000000000e+00
4.2000000000e-01 0.0000000000e+00 0.0000000000e+00
4.3000000000e-01 0.0000000000e+00 0.0000000000e+00
4.4000000000e-01 0.0000000000e+00 0.0000000000e+00
4.5000000000e-01 0.0000000000e+00 0.0000000000e+00
4.6000000000e-01 0.0000000000e+00 0.0000000000e+00
4.7000000000e-01 0.0000000000e+00 0.0000000000e+00
4.8000000000e-01 0.0000000000e+00 0.0000000000e+00
4.9000000000e-01 0.0000000000e+00 0.0000000000e+00
5.0000000000e-01 0.0000000000e+00 0.0000000000e+00
5.1000000000e-01 0.0000000000e+00 0.0000000000e+00
5.2000000000e-01 0.0000000000e+00 0.0000000000e+00
5.3000000000e-01 0.0000000000e+00 0.0000000000e+00
5.4000000000e-01 0.0000000000e+00 0.0000000000e+00
5.5000000000e-01 0.0000000000e+00 0.0000000000e+00
5.6000000000e-01 0.0000000000e+00 0.0000000000e+00
5.7000000000e-01 0.0000000000e+00 0.0000000000e+00
5.8000000000e-01 0.0000000000e+00 0.0000000000e+00
5.9000000000e-01 0.0000000000e+00 0.0000000000e+00
6.0000000000e-01 0.0000000000e+00 0.0000000000e+00
6.1000000000e-01 0.0000000000e+00 0.0000000000e+00
6.2000000000e-01 0.0000000000e+00 0.0000000000e+00
6.3000000000e-01 0.0000000000e+00 0.0000000000e+00
6.4000000000e-01 0.0000000000e+00 0.0000000000e+00
6.5000000000e-01 0.0000000000e+00 0.0000000000e+00
6.6000000000e-01 0.0000000000e+00 0.0000000000e+00
6.7000000000e-01 0.0000000000e+00 0.0000000000e+00
6.8000000000e-01 0.0000000000e+00 0.0000000000e+00
6.9000000000e-01 0.0000000000e+00 0.0000000000e+00
7.0000000000e-01 0.0000000000e+00 0.0000000000e+00
7.1000000000e-01 0.0000000000e+00 0.0000000000e+00
7.2000000000e-01 0.0000000000e+00 0.0000000000e+00
7.3000000000e-01 0.0000000000e+00 0.0000000000e+00
7.4000000000e-01 0.0000000000e+00 0.0000000000e+00
7.5000000000e-01 0.0000000000e+00 0.0000000000e+00
7.6000000000e-01 0.0000000000e+00 0.0000000000e+00
7.7000000000e-01 0.0000000000e+00 0.0000000000e+00
7.8000000000e-01 0.0000000000e+00 0.0000000000e+00
7.9000000000e-01 0.0000000000e+00 0.0000000000e+00
8.0000000000e-01 0.0000000000e+00 0.0000000000e+00
8.1000000000e-01 0.0000000000e+00 0.0000000000e+00
8.2000000000e-01 0.0000000000e+00 0.0000000000e+00
8.3000000000e-01 0.0000000000e+00 0.0000000000e+00
8.4000000000e-01 0.0000000000e+00 0.0000000000e+00
8.5000000000e-01 0.0000000000e+00 0.0000000000e+00
8.6000000000e-01 0.0000000000e+00 0.0000000000e+00
8.7000000000e-01 0.0000000000e+00 0.0000000000e+00
8.8000000000e-01 0.0000000000e+00 0.0000000000e+00
8.9000000000e-01 0.0000000000e+00 0.0000000000e+00
9.0000000000e-01 0.0000000000e+00 0.0000000000e+00
9.1000000000e-01 0.0000000000e+00 0.0000000000e+00
9.2000000000e-01 0.0000000000e+00 0.0000000000e+00
9.3000000000e-01 0.0000000000e+00 0.0000000000e+00
9.4000000000e-01 0.0000000000e+00 0.0000000000e+00
9.5000000000e-01 0.0000000000e+00 0.0000000000e+00
9.6000000000e-01 0.0000000000e+00 0.0000000000e+00
9.7000000000e-01 0.0000000000e+00 0.0000000000e+00
9.8000000000e-01 0.0000000000e+00 0.0000000000e+00
9.9000000000e-01 0.0000000000e+00 0.0000000000e+00
1.0000000000e+00 0.0000000000e+00 0.0000000000e+00
0.0000000000e+00 1.0000000000e-02 0.0000000000e+00
1.0000000000e-02 1.0000000000e-02 0.0000000000e+00
2.0000000000e-02 1.0000000000e-02 0.0000000000e+00
3.0000000000e-02 1.0000000000e-02 0.0000000000e+00
4.0000000000e-02 1.0000000000e-02 0.0000000000e+00
5.0000000000e-02 1.0000000000e-02 0.0000000000e+00
6.0000000000e-02 1.0000000000e-02 0.0000000000e+00
7.0000000000e-02 1.0000000000e-02 0.0000000000e+00
8.0000000000e-02 1.0000000000e-02 0.0000000000e+00
9.0000000000e-02 1.0000000000e-02 0.0000000000e+00
1.0000000000e-01 1.0000000000e-02 0.0000000000e+00
1.1000000000e-01 1.0000000000e-02 0.0000000000e+00
1.2000000000e-01 1.0000000000e-02 0.0000000000e+00
1.3000000000e-01 1.0000000000e-02 0.0000000000e+00
1.4000000000e-01 1.0000000000e-02 0.0000000000e+00
1.5000000000e-01 1.0000000000e-02 0.0000000000e+00
1.6000000000e-01 1.0000000000e-02 0.0000000000e+00
1.7000000000e-01 1.0000000000e-02 0.0000000000e+00
1.8000000000e-01 1.0000000000e-02 0.0000000000e+00
1.9000000000e-01 1.0000000000e-02 0.0000000000e+00
2.0000000000e-01 1.0000000000e-02 0.0000000000e+00
2.1000000000e-01 1.0000000000e-02 0.0000000000e+00
2.2000000000e-01 1.0000000000e-02 0.0000000000e+00
2.3000000000e-01 1.0000000000e-02 0.0000000000e+00
2.4000000000e-01 1.0000000000e-02 0.0000000000e+00
2.5000000000e-01 1.0000000000e-02 0.0000000000e+00
2.6000000000e-01 1.0000000000e-02 0.0000000000e+00
2.7000000000e-01 1.0000000000e-02 0.0000000000e+00
2.8000000000e-01 1.0000000000e-02 0.0000000000e+00
2.9000000000e-01 1.0000000000e-02 0.0000000000e+00
3.0000000000e-01 1.0000000000e-02 0.0000000000e+00
3.1000000000e-01 1.0000000000e-02 0.0000000000e+00
3.2000000000e-01 1.0000000000e-02 0.0000000000e+00
3.3000000000e-01 1.0000000000e-02 0.0000000000e+00
3.4000000000e-01 1.0000000000e-02 0.0000000000e+00
3.5000000000e-01 1.0000000000e-02 0.0000000000e+00
3.6000000000e-01 1.0000000000e-02 0.0000000000e+00
3.7000000000e-01 1.0000000000e-02 0.0000000000e+00
3.8000000000e-01 1.0000000000e-02 0.0000000000e+00
3.9000000000e-01 1.0000000000e-02 0.0000000000e+00
4.0000000000e-01 1.0000000000e-02 0.0000000000e+00
4.1000000000e-01 1.0000000000e-02 0.0000000000e+00
4.2000000000e-01 1.0000000000e-02 0.0000000000e+00
4.3000000000e-01 1.0000000000e-02 0.0000000000e+00
4.4000000000e-01 1.0000000000e-02 0.0000000000e+00
4.5000000000e-01 1.0000000000e-02 0.0000000000e+00
4.6000000000e-01 1.0000000000e-02 0.0000000000e+00
4.7000000000e-01 1.0000000000e-02 0.0000000000e+00
4.8000000000e-01 1.0000000000e-02 0.0000000000e+00
4.9000000000e-01 1.0000000000e-02 0.0000000000e+00
5.0000000000e-01 1.0000000000e-02 0.0000000000e+00
5.1000000000e-01 1.0000000000e-02 0.0000000000e+00
5.2000000000e-01 1.0000000000e-02 0.0000000000e+00
5.3000000000e-01 1.0000000000e-02 0.0000000000e+00
5.4000000000e-01 1.0000000000e-02 0.0000000000e+00
5.5000000000e-01 1.0000000000e-02 0.0000000000e+00
5.6000000000e-01 1.0000000000e-02 0.0000000000e+00
5.7000000000e-01 1.0000000000e-02 0.0000000000e+00
5.8000000000e-01 1.0000000000e-02 0.0000000000e+00
5.9000000000e-01 1.0000000000e-02 0.0000000000e+00
6.0000000000e-01 1.0000000000e-02 0.0000000000e+00
6.1000000000e-01 1.0000000000e-02 0.0000000000e+00
6.2000000000e-01 1.0000000000e-02 0.0000000000e+00
6.3000000000e-01 1.0000000000e-02 0.0000000000e+00
6.4000000000e-01 1.0000000000e-02 0.0000000000e+00
6.5000000000e-01 1.0000000000e-02 0.0000000000e+00
6.6000000000e-01 1.0000000000e-02 0.0000000000e+00
6.7000000000e-01 1.0000000000e-02 0.0000000000e+00
6.8000000000e-01 1.0000000000e-02 0.0000000000e+00
6.9000000000e-01 1.0000000000e-02 0.0000000000e+00
7.0000000000e-01 1.0000000000e-02 0.0000000000e+00
7.1000000000e-01 1.0000000000e-02 0.0000000000e+00
7.2000000000e-01 1.0000000000e-02 0.0000000000e+00
7.3000000000e-01 1.0000000000e-02 0.0000000000e+00
7.4000000000e-01 1.0000000000e-02 0.0000000000e+00
7.5000000000e-01 1.0000000000e-02 0.0000000000e+00
7.6000000000e-01 1.0000000000e-02 0.0000000000e+00
7.7000000000e-01 1.0000000000e-02 0.0000000000e+00
7.8000000000e-01 1.0000000000e-02 0.0000000000e+00
7.9000000000e-01 1.0000000000e-02 0.0000000000e+00
8.0000000000e-01 1.0000000000e-02 0.0000000000e+00
8.1000000000e-01 1.0000000000e-02 0.0000000000e+00
8.2000000000e-01 1.0000000000e-02 0.0000000000e+00
8.3000000000e-01 1.0000000000e-02 0.0000000000e+00
8.4000000000e-01 1.0000000000e-02 0.0000000000e+00
8.5000000000e-01 1.0000000000e-02 0.0000000000e+00
8.6000000000e-01 1.0000000000e-02 0.0000000000e+00
8.7000000000e-01 1.0000000000e-02 0.0000000000e+00
8.8000000000e-01 1.0000000000e-02 0.0000000000e+00
8.9000000000e-01 1.0000000000e-02 0.0000000000e+00
9.0000000000e-01 1.0000000000e-02 0.0000000000e+00
9.1000000000e-01 1.0000000000e-02 0.0000000000e+00
9.2000000000e-01 1.0000000000e-02 0.0000000000e+00
[...]
CELL_DATA 10000

SCALARS massDensity float
LOOKUP_TABLE default
1.1981561575e+00
1.1982071011e+00
1.1982823136e+00
1.1983954078e+00
1.1985440150e+00
1.1987251744e+00
1.1989354360e+00
1.1991709470e+00
1.1994275631e+00
1.1997009493e+00
1.1999867008e+00
1.2002804449e+00
1.2005779542e+00
1.2008752319e+00
1.2011686010e+00
1.2014547617e+00
1.2017308480e+00
1.2019944514e+00
1.2022436432e+00
1.2024769655e+00
1.2026934238e+00
1.2028924520e+00
1.2030738828e+00
1.2032378963e+00
1.2033849781e+00
1.2035158616e+00
1.2036314827e+00
1.2037329243e+00
1.2038213746e+00
1.2038980793e+00
1.2039643078e+00
1.2040213161e+00
1.2040703225e+00
1.2041124805e+00
1.2041488647e+00
1.2041804525e+00
1.2042081179e+00
1.2042326214e+00
1.2042546105e+00
1.2042746158e+00
1.2042930570e+00
1.2043102450e+00
1.2043263929e+00
1.2043416223e+00
1.2043559784e+00
1.2043694407e+00
1.2043819397e+00
1.2043933695e+00
1.2044036057e+00
1.2044125166e+00
1.2044199790e+00
1.2044258873e+00
1.2044301644e+00
1.2044327661e+00
1.2044336869e+00
1.2044329593e+00
1.2044306540e+00
1.2044268753e+00
1.2044217567e+00
1.2044154543e+00
1.2044081403e+00
1.2043999950e+00
1.2043912015e+00
1.2043819384e+00
1.2043723751e+00
1.2043626678e+00
1.2043529563e+00
1.2043433625e+00
1.2043339893e+00
1.2043249206e+00
1.2043162224e+00
1.2043079442e+00
1.2043001200e+00
1.2042927710e+00
1.2042859071e+00
1.2042795288e+00
1.2042736293e+00
1.2042681958e+00
1.2042632109e+00
1.2042586543e+00
1.2042545032e+00
1.2042507338e+00
1.2042473214e+00
1.2042442424e+00
1.2042414733e+00
1.2042389938e+00
1.2042367859e+00
1.2042348370e+00
1.2042331399e+00
1.2042316965e+00
1.2042305181e+00
1.2042296303e+00
1.2042290737e+00
1.2042289098e+00
1.2042292238e+00
1.2042301313e+00
1.2042317823e+00
1.2042343638e+00
1.2042380782e+00
1.2042238524e+00
1.1982071011e+00
1.1982607042e+00
1.1983369150e+00
1.1984502367e+00
1.1985984998e+00
1.1987788918e+00
1.1989880587e+00
1.1992222276e+00
1.1994773057e+00
1.1997490107e+00
1.2000329720e+00
1.2003248581e+00
1.2006204673e+00
1.2009158366e+00
1.2012073085e+00
1.2014916104e+00
1.2017658900e+00
1.2020277592e+00
1.2022752969e+00
1.2025070593e+00
1.2027220533e+00
1.2029197204e+00
1.2030998891e+00
1.2032627410e+00
1.2034087523e+00
1.2035386519e+00
1.2036533614e+00
1.2037539533e+00
1.2038415965e+00
1.2039175207e+00
1.2039829712e+00
1.2040391828e+00
1.2040873456e+00
1.2041285884e+00
1.2041639552e+00
1.2041943976e+00
1.2042207610e+00
1.2042437837e+00
1.2042640912e+00
1.2042822017e+00
1.2042985260e+00
1.2043133786e+00
1.2043269819e+00
1.2043394813e+00
1.2043509531e+00
1.2043614211e+00
1.2043708668e+00
1.2043792458e+00
1.2043864976e+00
1.2043925602e+00
1.2043973774e+00
1.2044009096e+00
1.2044031375e+00
1.2044040681e+00
1.2044037340e+00
1.2044021953e+00
1.2043995353e+00
1.2043958587e+00
1.2043912854e+00
1.2043859471e+00
1.2043799805e+00
1.2043735239e+00
1.2043667111e+00
1.2043596691e+00
1.2043525141e+00
1.2043453499e+00
1.2043382665e+00
1.2043313399e+00
1.2043246318e+00
1.2043181907e+00
1.2043120527e+00
1.2043062430e+00
1.2043007772e+00
1.2042956627e+00
1.2042909003e+00
1.2042864855e+00
1.2042824095e+00
1.2042786602e+00
1.2042752236e+00
1.2042720837e+00
1.2042692242e+00
1.2042666277e+00
1.2042642778e+00
1.2042621578e+00
1.2042602530e+00
1.2042585497e+00
1.2042570373e+00
1.2042557074e+00
1.2042545566e+00
1.2042535856e+00
1.2042528018e+00
1.2042522191e+00
1.2042518600e+00
1.2042517551e+00
1.2042519445e+00
1.2042524745e+00
1.2042533939e+00
1.2042547376e+00
1.2042564925e+00
1.2042385471e+00
1.1982823136e+00
1.1983369150e+00
1.1984127323e+00
1.1985249783e+00
1.1986715807e+00
1.1988498055e+00
1.1990563822e+00
1.1992876003e+00
1.1995394409e+00
1.1998076769e+00
1.2000880071e+00
1.2003761502e+00
1.2006679685e+00
1.2009595427e+00
1.2012472709e+00
1.2015279155e+00
1.2017986688e+00
1.2020571670e+00
1.2023015215e+00
1.2025303018e+00
1.2027425355e+00
1.2029376672e+00
1.2031155358e+00
1.2032763180e+00
1.2034204921e+00
1.2035487765e+00
1.2036620889e+00
1.2037614878e+00
1.2038481346e+00
1.2039232428e+00
1.2039880478e+00
1.2040437669e+00
1.2040915779e+00
1.2041325908e+00
1.2041678351e+00
1.2041982419e+00
1.2042246397e+00
1.2042477444e+00
1.2042681629e+00
1.2042863901e+00
1.2043028183e+00
1.2043177397e+00
1.2043313608e+00
1.2043438095e+00
1.2043551517e+00
1.2043654013e+00
1.2043745380e+00
1.2043825168e+00
1.2043892851e+00
1.2043947900e+00
1.2043989912e+00
1.2044018657e+00
1.2044034150e+00
1.2044036659e+00
1.2044026725e+00
1.2044005132e+00
1.2043972888e+00
1.2043931171e+00
1.2043881290e+00
1.2043824618e+00
1.2043762554e+00
1.2043696464e+00
1.2043627649e+00
1.2043557306e+00
1.2043486512e+00
1.2043416203e+00
1.2043347175e+00
1.2043280077e+00
1.2043215426e+00
1.2043153611e+00
1.2043094909e+00
1.2043039501e+00
1.2042987482e+00
1.2042938881e+00
1.2042893672e+00
1.2042851784e+00
1.2042813115e+00
1.2042777539e+00
1.2042744911e+00
1.2042715081e+00
1.2042687888e+00
1.2042663177e+00
1.2042640789e+00
1.2042620582e+00
1.2042602418e+00
1.2042586180e+00
1.2042571769e+00
1.2042559117e+00
1.2042548183e+00
1.2042538970e+00
1.2042531519e+00
1.2042525924e+00
1.2042522317e+00
1.2042520876e+00
1.2042521792e+00
1.2042525236e+00
1.2042531253e+00
1.2042539608e+00
1.2042549433e+00
1.2042351070e+00
1.1983954078e+00
1.1984502367e+00
1.1985249783e+00
1.1986353609e+00
1.1987793557e+00
1.1989543070e+00
1.1991570156e+00
1.1993838650e+00
1.1996309135e+00
1.1998940319e+00
1.2001689958e+00
1.2004516194e+00
1.2007378360e+00
1.2010238130e+00
1.2013060090e+00
1.2015812589e+00
1.2018468007e+00
1.2021003259e+00
1.2023399750e+00
1.2025643545e+00
1.2027725049e+00
1.2029638909e+00
1.2031383503e+00
1.2032960658e+00
1.2034375040e+00
1.2035633785e+00
1.2036745885e+00
1.2037721808e+00
1.2038572940e+00
1.2039311260e+00
1.2039948877e+00
1.2040497782e+00
1.2040969502e+00
1.2041374941e+00
1.2041724135e+00
1.2042026188e+00
1.2042289118e+00
1.2042519868e+00
1.2042724237e+00
1.2042906958e+00
1.2043071695e+00
1.2043221174e+00
1.2043357238e+00
1.2043481016e+00
1.2043593010e+00
1.2043693286e+00
1.2043781574e+00
1.2043857445e+00
1.2043920405e+00
1.2043970037e+00
1.2044006061e+00
1.2044028426e+00
1.2044037324e+00
1.2044033233e+00
1.2044016881e+00
1.2043989247e+00
1.2043951494e+00
1.2043904942e+00
1.2043850993e+00
1.2043791088e+00
1.2043726646e+00
1.2043659030e+00
1.2043589495e+00
1.2043519178e+00
1.2043449068e+00
1.2043380007e+00
1.2043312685e+00
1.2043247649e+00
1.2043185316e+00
1.2043125982e+00
1.2043069845e+00
1.2043017013e+00
1.2042967526e+00
1.2042921367e+00
1.2042878477e+00
1.2042838760e+00
1.2042802102e+00
1.2042768367e+00
1.2042737412e+00
1.2042709088e+00
1.2042683245e+00
1.2042659733e+00
1.2042638413e+00
1.2042619145e+00
1.2042601812e+00
1.2042586302e+00
1.2042572530e+00
1.2042560422e+00
1.2042549942e+00
1.2042541070e+00
1.2042533823e+00
1.2042528239e+00
1.2042524384e+00
1.2042522319e+00
1.2042522097e+00
1.2042523692e+00
1.2042526938e+00
1.2042531380e+00
1.2042536091e+00
1.2042325203e+00
1.1985440150e+00
1.1985984998e+00
1.1986715807e+00
1.1987793557e+00
1.1989198465e+00
1.1990904592e+00
1.1992880927e+00
1.1995092193e+00
1.1997500150e+00
1.2000064488e+00
1.2002744198e+00
1.2005498391e+00
1.2008287580e+00
1.2011074311e+00
1.2013824201e+00
1.2016506307e+00
1.2019093832e+00
1.2021564192e+00
1.2023899378e+00
1.2026085736e+00
1.2028114024e+00
1.2029978969e+00
1.2031679094e+00
1.2033216139e+00
1.2034594754e+00
1.2035821872e+00
1.2036906352e+00
1.2037858387e+00
1.2038689162e+00
1.2039410346e+00
1.2040033812e+00
1.2040571231e+00
1.2041033880e+00
1.2041432343e+00
1.2041776404e+00
1.2042074849e+00
1.2042335443e+00
1.2042564818e+00
1.2042768526e+00
1.2042951001e+00
1.2043115675e+00
1.2043265010e+00
1.2043400656e+00
1.2043523532e+00
1.2043634014e+00
1.2043732041e+00
1.2043817303e+00
1.2043889344e+00
1.2043947727e+00
1.2043992103e+00
1.2044022333e+00
1.2044038508e+00
1.2044041015e+00
1.2044030507e+00
1.2044007916e+00
1.2043974388e+00
1.2043931256e+00
1.2043879962e+00
1.2043822014e+00
1.2043758909e+00
1.2043692099e+00
1.2043622934e+00
1.2043552637e+00
1.2043482280e+00
1.2043412773e+00
1.2043344863e+00
1.2043279143e+00
1.2043216059e+00
1.2043155929e+00
1.2043098964e+00
1.2043045279e+00
1.2042994916e+00
1.2042947858e+00
1.2042904045e+00
1.2042863382e+00
1.2042825755e+00
1.2042791029e+00
1.2042759068e+00
1.2042729722e+00
1.2042702848e+00
1.2042678301e+00
1.2042655942e+00
1.2042635637e+00
1.2042617264e+00
1.2042600707e+00
1.2042585869e+00
1.2042572662e+00
1.2042561021e+00
1.2042550892e+00
1.2042542250e+00
1.2042535076e+00
1.2042529374e+00
1.2042525143e+00
1.2042522378e+00
1.2042521030e+00
1.2042520979e+00
1.2042521964e+00
1.2042523517e+00
1.2042524850e+00
1.2042305342e+00
1.1987251744e+00
1.1987788918e+00
1.1988498055e+00
1.1989543070e+00
1.1990904592e+00
1.1992557568e+00
1.1994471874e+00
1.1996613497e+00
1.1998945322e+00
1.2001428477e+00
1.2004023145e+00
1.2006689895e+00
1.2009390373e+00
1.2012088465e+00
1.2014750763e+00
1.2017347447e+00
1.2019852464e+00
1.2022244079e+00
1.2024504762e+00
1.2026621416e+00
1.2028585020e+00
1.2030390584e+00
1.2032036625e+00
1.2033524939e+00
1.2034859994e+00
1.2036048611e+00
1.2037099352e+00
1.2038022186e+00
1.2038827939e+00
1.2039527996e+00
1.2040133850e+00
1.2040656865e+00
1.2041107938e+00
1.2041497345e+00
1.2041834502e+00
1.2042127896e+00
1.2042384936e+00
1.2042611969e+00
1.2042814210e+00
1.2042995827e+00
1.2043159945e+00
1.2043308794e+00
1.2043443765e+00
1.2043565602e+00
1.2043674498e+00
1.2043770293e+00
1.2043852589e+00
1.2043920926e+00
1.2043974879e+00
1.2044014189e+00
1.2044038815e+00
1.2044049011e+00
1.2044045320e+00
1.2044028589e+00
1.2043999921e+00
1.2043960647e+00
1.2043912246e+00
1.2043856297e+00
1.2043794398e+00
1.2043728116e+00
1.2043658927e+00
1.2043588180e+00
1.2043517061e+00
1.2043446588e+00
1.2043377591e+00
1.2043310730e+00
1.2043246501e+00
1.2043185254e+00
1.2043127215e+00
1.2043072504e+00
1.2043021161e+00
1.2042973161e+00
1.2042928434e+00
1.2042886873e+00
1.2042848354e+00
1.2042812736e+00
1.2042779874e+00
1.2042749619e+00
1.2042721825e+00
1.2042696347e+00
1.2042673048e+00
1.2042651793e+00
1.2042632462e+00
1.2042614934e+00
1.2042599109e+00
1.2042584887e+00
1.2042572190e+00
1.2042560945e+00
1.2042551100e+00
1.2042542604e+00
1.2042535428e+00
1.2042529533e+00
1.2042524888e+00
1.2042521429e+00
1.2042519063e+00
1.2042517619e+00
1.2042516829e+00
1.2042516269e+00
1.2042515341e+00
1.2042289562e+00
1.1989354360e+00
1.1989880587e+00
1.1990563822e+00
1.1991570156e+00
1.1992880927e+00
1.1994471874e+00
1.1996314117e+00
1.1998374809e+00
1.2000618394e+00
1.2003007352e+00
1.2005503539e+00
1.2008068890e+00
1.2010666670e+00
1.2013262005e+00
1.2015822913e+00
1.2018320583e+00
1.2020730100e+00
1.2023030445e+00
1.2025204894e+00
1.2027240758e+00
1.2029129486e+00
1.2030866210e+00
1.2032449625e+00
1.2033881413e+00
1.2035165988e+00
1.2036309885e+00
1.2037321453e+00
1.2038210272e+00
1.2038986860e+00
1.2039662169e+00
1.2040247337e+00
1.2040753289e+00
1.2041190563e+00
1.2041569010e+00
1.2041897696e+00
1.2042184706e+00
1.2042437122e+00
1.2042660913e+00
1.2042860991e+00
1.2043041178e+00
1.2043204329e+00
1.2043352372e+00
1.2043486477e+00
1.2043607153e+00
1.2043714440e+00
1.2043808031e+00
1.2043887462e+00
1.2043952226e+00
1.2044001930e+00
1.2044036363e+00
1.2044055602e+00
1.2044060023e+00
1.2044050342e+00
1.2044027569e+00
1.2043992993e+00
1.2043948105e+00
1.2043894543e+00
1.2043834007e+00
1.2043768198e+00
1.2043698743e+00
1.2043627153e+00
1.2043554772e+00
1.2043482762e+00
1.2043412082e+00
1.2043343494e+00
1.2043277572e+00
1.2043214718e+00
1.2043155191e+00
1.2043099124e+00
1.2043046554e+00
1.2042997444e+00
1.2042951706e+00
1.2042909212e+00
1.2042869816e+00
1.2042833358e+00
1.2042799678e+00
1.2042768611e+00
1.2042740004e+00
1.2042713705e+00
1.2042689574e+00
1.2042667475e+00
1.2042647284e+00
1.2042628882e+00
1.2042612162e+00
1.2042597022e+00
1.2042583377e+00
1.2042571140e+00
1.2042560246e+00
1.2042550628e+00
1.2042542234e+00
1.2042535008e+00
1.2042528901e+00
1.2042523843e+00
1.2042519753e+00
1.2042516505e+00
1.2042513926e+00
1.2042511757e+00
1.2042509656e+00
1.2042507170e+00
1.2042276566e+00
1.1991709470e+00
1.1992222276e+00
1.1992876003e+00
1.1993838650e+00
1.1995092193e+00
1.1996613497e+00
1.1998374809e+00
1.2000344859e+00
1.2002489517e+00
1.2004773078e+00
1.2007158938e+00
1.2009610881e+00
1.2012093649e+00
1.2014574079e+00
1.2017021462e+00
1.2019408423e+00
1.2021711023e+00
1.2023909325e+00
1.2025987237e+00
1.2027932772e+00
1.2029737675e+00
1.2031397425e+00
1.2032910713e+00
1.2034279271e+00
1.2035507283e+00
1.2036601114e+00
1.2037568728e+00
1.2038419395e+00
1.2039163166e+00
1.2039810610e+00
1.2040372373e+00
1.2040858977e+00
1.2041280475e+00
1.2041646323e+00
1.2041965133e+00
1.2042244619e+00
1.2042491442e+00
1.2042711230e+00
1.2042908509e+00
1.2043086794e+00
1.2043248602e+00
1.2043395596e+00
1.2043528666e+00
1.2043648117e+00
1.2043753787e+00
1.2043845247e+00
1.2043921924e+00
1.2043983285e+00
1.2044028925e+00
1.2044058700e+00
1.2044072766e+00
1.2044071638e+00
1.2044056169e+00
1.2044027546e+00
1.2043987220e+00
1.2043936851e+00
1.2043878221e+00
1.2043813160e+00
1.2043743463e+00
1.2043670830e+00
1.2043596800e+00
1.2043522725e+00
1.2043449739e+00
1.2043378754e+00
1.2043310462e+00
1.2043245359e+00
1.2043183759e+00
1.2043125829e+00
1.2043071615e+00
1.2043021071e+00
1.2042974087e+00
1.2042930508e+00
1.2042890156e+00
1.2042852838e+00
1.2042818366e+00
1.2042786551e+00
1.2042757218e+00
1.2042730201e+00
1.2042705349e+00
1.2042682517e+00
1.2042661578e+00
1.2042642409e+00
1.2042624901e+00
1.2042608950e+00
1.2042594465e+00
1.2042581355e+00
1.2042569547e+00
1.2042558965e+00
1.2042549545e+00
1.2042541222e+00
1.2042533936e+00
1.2042527614e+00
1.2042522184e+00
1.2042517540e+00
1.2042513559e+00
1.2042510065e+00
1.2042506840e+00
1.2042503602e+00
1.2042500021e+00
1.2042265514e+00
1.1994275631e+00
1.1994773057e+00
1.1995394409e+00
1.1996309135e+00
1.1997500150e+00
1.1998945322e+00
1.2000618394e+00
1.2002489517e+00
1.2004526423e+00
1.2006695046e+00
1.2008960794e+00
1.2011289114e+00
1.2013646701e+00
1.2016001906e+00
1.2018325741e+00
1.2020592069e+00
1.2022778322e+00
1.2024865444e+00
1.2026838309e+00
1.2028685433e+00
1.2030399120e+00
1.2031975001e+00
1.2033411967e+00
1.2034711615e+00
1.2035878042e+00
1.2036917271e+00
1.2037836983e+00
1.2038645980e+00
1.2039353917e+00
1.2039970838e+00
1.2040506949e+00
1.2040972241e+00
1.2041376327e+00
1.2041728158e+00
1.2042035932e+00
1.2042306896e+00
1.2042547330e+00
1.2042762439e+00
1.2042956407e+00
1.2043132372e+00
1.2043292550e+00
1.2043438282e+00
1.2043570214e+00
1.2043688396e+00
1.2043792494e+00
1.2043881910e+00
1.2043955987e+00
1.2044014120e+00
1.2044055915e+00
1.2044081254e+00
1.2044090386e+00
1.2044083930e+00
1.2044062892e+00
1.2044028605e+00
1.2043982691e+00
1.2043926964e+00
1.2043863357e+00
1.2043793820e+00
1.2043720253e+00
1.2043644419e+00
1.2043567902e+00
1.2043492056e+00
1.2043417999e+00
1.2043346596e+00
1.2043278481e+00
1.2043214070e+00
1.2043153594e+00
1.2043097135e+00
1.2043044651e+00
1.2042996017e+00
1.2042951050e+00
1.2042909531e+00
1.2042871228e+00
1.2042835908e+00
1.2042803345e+00
1.2042773331e+00
1.2042745672e+00
1.2042720194e+00
1.2042696739e+00
1.2042675167e+00
1.2042655348e+00
1.2042637168e+00
1.2042620520e+00
1.2042605310e+00
1.2042591446e+00
1.2042578849e+00
1.2042567439e+00
1.2042557149e+00
1.2042547906e+00
1.2042539647e+00
1.2042532298e+00
1.2042525790e+00
1.2042520031e+00
1.2042514925e+00
1.2042510341e+00
1.2042506128e+00
1.2042502092e+00
1.2042498014e+00
1.2042493641e+00
1.2042255868e+00
1.1997009493e+00
1.1997490107e+00
1.1998076769e+00
1.1998940319e+00
1.2000064488e+00
1.2001428477e+00
1.2003007352e+00
1.2004773078e+00
1.2006695046e+00
1.2008741275e+00
1.2010878957e+00
1.2013075669e+00
1.2015299821e+00
1.2017521733e+00
1.2019713899e+00
1.2021851834e+00
1.2023914108e+00
1.2025882907e+00
1.2027743844e+00
1.2029486237e+00
1.2031102735e+00
1.2032589358e+00
1.2033944997e+00
1.2035171292e+00
1.2036272074e+00
1.2037253152e+00
1.2038121765e+00
1.2038886337e+00
1.2039555987e+00
1.2040140301e+00
1.2040648919e+00
1.2041091357e+00
1.2041476678e+00
1.2041813377e+00
1.2042109141e+00
1.2042370798e+00
1.2042604165e+00
1.2042814071e+00
1.2043004287e+00
1.2043177619e+00
1.2043335924e+00
1.2043480260e+00
1.2043610976e+00
1.2043727905e+00
1.2043830489e+00
1.2043917995e+00
1.2043989633e+00
1.2044044754e+00
1.2044082928e+00
1.2044104082e+00
1.2044108522e+00
1.2044096981e+00
1.2044070588e+00
1.2044030834e+00
1.2043979489e+00
1.2043918530e+00
1.2043850025e+00
1.2043776059e+00
1.2043698624e+00
1.2043619561e+00
1.2043540493e+00
1.2043462791e+00
1.2043387554e+00
1.2043315613e+00
1.2043247543e+00
1.2043183688e+00
1.2043124202e+00
1.2043069081e+00
1.2043018201e+00
1.2042971359e+00
1.2042928299e+00
1.2042888741e+00
1.2042852398e+00
1.2042818994e+00
1.2042788271e+00
1.2042759994e+00
1.2042733954e+00
1.2042709964e+00
1.2042687865e+00
1.2042667512e+00
1.2042648781e+00
1.2042631557e+00
1.2042615744e+00
1.2042601247e+00
1.2042587984e+00
1.2042575875e+00
1.2042564850e+00
1.2042554834e+00
1.2042545763e+00
1.2042537566e+00
1.2042530173e+00
1.2042523504e+00
1.2042517477e+00
1.2042511988e+00
1.2042506925e+00
1.2042502144e+00
1.2042497493e+00
1.2042492789e+00
1.2042487845e+00
1.2042247254e+00
1.1999867008e+00
1.2000329720e+00
1.2000880071e+00
1.2001689958e+00
1.2002744198e+00
1.2004023145e+00
1.2005503539e+00
1.2007158938e+00
1.2008960794e+00
1.2010878957e+00
1.2012882844e+00
1.2014941889e+00
1.2017026660e+00
1.2019109169e+00
1.2021163814e+00
1.2023167493e+00
1.2025100289e+00
1.2026945375e+00
1.2028689426e+00
1.2030322326e+00
1.2031837332e+00
1.2033230637e+00
1.2034501342e+00
1.2035650937e+00
1.2036683146e+00
1.2037603395e+00
1.2038418600e+00
1.2039136659e+00
1.2039766246e+00
1.2040316360e+00
1.2040796148e+00
1.2041214538e+00
1.2041580105e+00
1.2041900791e+00
1.2042183829e+00
1.2042435546e+00
1.2042661351e+00
1.2042865624e+00
1.2043051775e+00
1.2043222217e+00
1.2043378495e+00
1.2043521333e+00
1.2043650823e+00
1.2043766531e+00
1.2043867715e+00
1.2043953454e+00
1.2044022859e+00
1.2044075187e+00
1.2044109999e+00
1.2044127223e+00
1.2044127236e+00
1.2044110855e+00
1.2044079338e+00
1.2044034311e+00
1.2043977701e+00
1.2043911627e+00
1.2043838307e+00
1.2043759945e+00
1.2043678640e+00
1.2043596307e+00
1.2043514617e+00
1.2043434959e+00
1.2043358426e+00
1.2043285814e+00
1.2043217648e+00
1.2043154207e+00
1.2043095568e+00
1.2043041647e+00
1.2042992241e+00
1.2042947070e+00
1.2042905807e+00
1.2042868109e+00
1.2042833636e+00
1.2042802070e+00
1.2042773117e+00
1.2042746517e+00
1.2042722042e+00
1.2042699497e+00
1.2042678712e+00
1.2042659545e+00
1.2042641869e+00
1.2042625578e+00
1.2042610573e+00
1.2042596770e+00
1.2042584088e+00
1.2042572456e+00
1.2042561800e+00
1.2042552056e+00
1.2042543154e+00
1.2042535030e+00
1.2042527609e+00
1.2042520820e+00
1.2042514575e+00
1.2042508784e+00
1.2042503338e+00
1.2042498122e+00
1.2042493000e+00
1.2042487834e+00
1.2042482473e+00
1.2042239401e+00
1.2002804449e+00
1.2003248581e+00
1.2003761502e+00
1.2004516194e+00
1.2005498391e+00
1.2006689895e+00
1.2008068890e+00
1.2009610881e+00
1.2011289114e+00
1.2013075669e+00
1.2014941889e+00
1.2016859483e+00
1.2018800868e+00
1.2020740160e+00
1.2022653357e+00
1.2024519118e+00
1.2026318756e+00
1.2028036766e+00
1.2029660621e+00
1.2031181056e+00
1.2032591700e+00
1.2033889155e+00
1.2035072521e+00
1.2036143326e+00
1.2037105006e+00
1.2037962750e+00
1.2038722994e+00
1.2039393229e+00
1.2039981544e+00
1.2040496448e+00
1.2040946478e+00
1.2041340053e+00
1.2041685161e+00
1.2041989260e+00
1.2042259046e+00
1.2042500406e+00
1.2042718270e+00
1.2042916630e+00
1.2043098474e+00
1.2043265876e+00
1.2043420013e+00
1.2043561327e+00
1.2043689602e+00
1.2043804180e+00
1.2043904087e+00
1.2043988250e+00
1.2044055634e+00
1.2044105428e+00
1.2044137140e+00
1.2044150718e+00
1.2044146573e+00
1.2044125617e+00
1.2044089210e+00
1.2044039116e+00
1.2043977402e+00
1.2043906338e+00
1.2043828277e+00
1.2043745553e+00
1.2043660367e+00
1.2043574716e+00
1.2043490322e+00
1.2043408601e+00
1.2043330642e+00
1.2043257217e+00
1.2043188805e+00
1.2043125625e+00
1.2043067683e+00
1.2043014819e+00
1.2042966752e+00
1.2042923127e+00
1.2042883548e+00
1.2042847609e+00