# vtk DataFile Version 2.0
Blank
ASCII
DATASET STRUCTURED_GRID
DIMENSIONS 101 101 2
POINTS 20402 float
0.0000000000e+00 0.0000000000e+00 0.0000000000e+00
1.0000000000e-02 0.0000000000e+00 0.0000000000e+00
2.0000000000e-02 0.0000000000e+00 0.0000000000e+00
3.0000000000e-02 0.0000000000e+00 0.0000000000e+00
4.0000000000e-02 0.0000000000e+00 0.0000000000e+00
5.0000000000e-02 0.0000000000e+00 0.0000000000e+00
6.0000000000e-02 0.0000000000e+00 0.0000000000e+00
7.0000000000e-02 0.0000000000e+00 0.0000000000e+00
8.0000000000e-02 0.0000000000e+00 0.0000000000e+00
9.0000000000e-02 0.0000000000e+00 0.0000000000e+00
1.0000000000e-01 0.0000000000e+00 0.0000000000e+00
1.1000000000e-01 0.0000000000e+00 0.0000000000e+00
1.2000000000e-01 0.0000000000e+00 0.0000000000e+00
1.3000000000e-01 0.0000000000e+00 0.0000000000e+00
1.4000000000e-01 0.0000000000e+00 0.0000000000e+00
1.5000000000e-01 0.0000000000e+00 0.0000000000e+00
1.6000000000e-01 0.0000000000e+00 0.0000000000e+00
1.7000000000e-01 0.0000000000e+00 0.0000000000e+00
1.8000000000e-01 0.0000000000e+00 0.0000000000e+00
1.9000000000e-01 0.0000000000e+00 0.0000000000e+00
2.0000000000e-01 0.0000000000e+00 0.0000000000e+00
2.1000000000e-01 0.0000000000e+00 0.0000000000e+00
2.2000000000e-01 0.0000000000e+00 0.0000000000e+00
2.3000000000e-01 0.0000000000e+00 0.0000000000e+00
2.4000000000e-01 0.0000000000e+00 0.0000000000e+00
2.5000000000e-01 0.0000000000e+00 0.0000000000e+00
2.6000000000e-01 0.0000000000e+00 0.0000000000e+00
2.7000000000e-01 0.0000000000e+00 0.0000000000e+00
2.8000000000e-01 0.0000000000e+00 0.0000000000e+00
2.9000000000e-01 0.0000000000e+00 0.0000000000e+00
3.0000000000e-01 0.0000000000e+00 0.0000000000e+00
3.1000000000e-01 0.0000000000e+00 0.0000000000e+00
3.2000000000e-01 0.0000000000e+00 0.0000000000e+00
3.3000000000e-01 0.0000000000e+00 0.0000000000e+00
3.4000000000e-01 0.0000000000e+00 0.0000000000e+00
3.5000000000e-01 0.0000000000e+00 0.0000000000e+00
3.6000000000e-01 0.0000000000e+00 0.0000000000e+00
3.7000000000e-01 0.0000000000e+00 0.0000000000e+00
3.8000000000e-01 0.0000000000e+00 0.0000000000e+00
3.9000000000e-01 0.0000000000e+00 0.0000000000e+00
4.0000000000e-01 0.0000000000e+00 0.0000000000e+00
4.1000000000e-01 0.0000000000e+00 0.0000000000e+00
4.2000000000e-01 0.0000000000e+00 0.0000000000e+00
4.3000000000e-01 0.0000000000e+00 0.0000000000e+00
4.4000000000e-01 0.0000000000e+00 0.0000000000e+00
4.5000000000e-01 0.0000000000e+00 0.0000000000e+00
4.6000000000e-01 0.0000000000e+00 0.0000000000e+00
4.7000000000e-01 0.0000000000e+00 0.0000000000e+00
4.8000000000e-01 0.0000000000e+00 0.0000000000e+00
4.9000000000e-01 0.0000000000e+00 0.0000000000e+00
5.0000000000e-01 0.0000000000e+00 0.0000000000e+00
5.1000000000e-01 0.0000000000e+00 0.0000000000e+00
5.2000000000e-01 0.0000000000e+00 0.0000000000e+00
5.3000000000e-01 0.0000000000e+00 0.0000000000e+00
5.4000000000e-01 0.0000000000e+00 0.0000000000e+00
5.5000000000e-01 0.0000000000e+00 0.0000000000e+00
5.6000000000e-01 0.0000000000e+00 0.0000000000e+00
5.7000000000e-01 0.0000000000e+00 0.0000000000e+00
5.8000000000e-01 0.0000000000e+00 0.0000000000e+00
5.9000000000e-01 0.0000000000e+00 0.0000000000e+00
6.0000000000e-01 0.0000000000e+00 0.0000000000e+00
6.1000000000e-01 0.0000000000e+00 0.0000000000e+00
6.2000000000e-01 0.0000000000e+00 0.0000000000e+00
6.3000000000e-01 0.0000000000e+00 0.0000000000e+00
6.4000000000e-01 0.0000000000e+00 0.0000000000e+00
6.5000000000e-01 0.0000000000e+00 0.0000000000e+00
6.6000000000e-01 0.0000000000e+00 0.0000000000e+00
6.7000000000e-01 0.0000000000e+00 0.0000000000e+00
6.8000000000e-01 0.0000000000e+00 0.0000000000e+00
6.9000000000e-01 0.0000000000e+00 0.0000000000e+00
7.0000000000e-01 0.0000000000e+00 0.0000000000e+00
7.1000000000e-01 0.0000000000e+00 0.0000000000e+00
7.2000000000e-01 0.0000000000e+00 0.0000000000e+00
7.3000000000e-01 0.0000000000e+00 0.0000000000e+00
7.4000000000e-01 0.0000000000e+00 0.0000000000e+00
7.5000000000e-01 0.0000000000e+00 0.0000000000e+00
7.6000000000e-01 0.0000000000e+00 0.0000000000e+00
7.7000000000e-01 0.0000000000e+00 0.0000000000e+00
7.8000000000e-01 0.0000000000e+00 0.0000000000e+00
7.9000000000e-01 0.0000000000e+00 0.0000000000e+00
8.0000000000e-01 0.0000000000e+00 0.0000000000e+00
8.1000000000e-01 0.0000000000e+00 0.0000000000e+00
8.2000000000e-01 0.0000000000e+00 0.0000000000e+00
8.3000000000e-01 0.0000000000e+00 0.0000000000e+00
8.4000000000e-01 0.0000000000e+00 0.0000000000e+00
8.5000000000e-01 0.0000000000e+00 0.0000000000e+00
8.6000000000e-01 0.0000000000e+00 0.0000000000e+00
8.7000000000e-01 0.0000000000e+00 0.0000000000e+00
8.8000000000e-01 0.0000000000e+00 0.0000000000e+00
8.9000000000e-01 0.0000000000e+00 0.0000000000e+00
9.0000000000e-01 0.0000000000e+00 0.0000000000e+00
9.1000000000e-01 0.0000000000e+00 0.0000000000e+00
9.2000000000e-01 0.0000000000e+00 0.0000000000e+00
9.3000000000e-01 0.0000000000e+00 0.0000000000e+00
9.4000000000e-01 0.0000000000e+00 0.0000000000e+00
9.5000000000e-01 0.0000000000e+00 0.0000000000e+00
9.6000000000e-01 0.0000000000e+00 0.0000000000e+00
9.7000000000e-01 0.0000000000e+00 0.0000000000e+00
9.8000000000e-01 0.0000000000e+00 0.0000000000e+00
9.9000000000e-01 0.0000000000e+00 0.0000000000e+00
1.0000000000e+00 0.0000000000e+00 0.0000000000e+00
0.0000000000e+00 1.0000000000e-02 0.0000000000e+00
1.0000000000e-02 1.0000000000e-02 0.0000000000e+00
2.0000000000e-02 1.0000000000e-02 0.0000000000e+00
3.0000000000e-02 1.0000000000e-02 0.0000000000e+00
4.0000000000e-02 1.0000000000e-02 0.0000000000e+00
5.0000000000e-02 1.0000000000e-02 0.0000000000e+00
6.0000000000e-02 1.0000000000e-02 0.0000000000e+00
7.0000000000e-02 1.0000000000e-02 0.0000000000e+00
8.0000000000e-02 1.0000000000e-02 0.0000000000e+00
9.0000000000e-02 1.0000000000e-02 0.0000000000e+00
1.0000000000e-01 1.0000000000e-02 0.0000000000e+00
1.1000000000e-01 1.0000000000e-02 0.0000000000e+00
1.2000000000e-01 1.0000000000e-02 0.0000000000e+00
1.3000000000e-01 1.0000000000e-02 0.0000000000e+00
1.4000000000e-01 1.0000000000e-02 0.0000000000e+00
1.5000000000e-01 1.0000000000e-02 0.0000000000e+00
1.6000000000e-01 1.0000000000e-02 0.0000000000e+00
1.7000000000e-01 1.0000000000e-02 0.0000000000e+00
1.8000000000e-01 1.0000000000e-02 0.0000000000e+00
1.9000000000e-01 1.0000000000e-02 0.0000000000e+00
2.0000000000e-01 1.0000000000e-02 0.0000000000e+00
2.1000000000e-01 1.0000000000e-02 0.0000000000e+00
2.2000000000e-01 1.0000000000e-02 0.0000000000e+00
2.3000000000e-01 1.0000000000e-02 0.0000000000e+00
2.4000000000e-01 1.0000000000e-02 0.0000000000e+00
2.5000000000e-01 1.0000000000e-02 0.0000000000e+00
2.6000000000e-01 1.0000000000e-02 0.0000000000e+00
2.7000000000e-01 1.0000000000e-02 0.0000000000e+00
2.8000000000e-01 1.0000000000e-02 0.0000000000e+00
2.9000000000e-01 1.0000000000e-02 0.0000000000e+00
3.0000000000e-01 1.0000000000e-02 0.0000000000e+00
3.1000000000e-01 1.0000000000e-02 0.0000000000e+00
3.2000000000e-01 1.0000000000e-02 0.0000000000e+00
3.3000000000e-01 1.0000000000e-02 0.0000000000e+00
3.4000000000e-01 1.0000000000e-02 0.0000000000e+00
3.5000000000e-01 1.0000000000e-02 0.0000000000e+00
3.6000000000e-01 1.0000000000e-02 0.0000000000e+00
3.7000000000e-01 1.0000000000e-02 0.0000000000e+00
3.8000000000e-01 1.0000000000e-02 0.0000000000e+00
3.9000000000e-01 1.0000000000e-02 0.0000000000e+00
4.0000000000e-01 1.0000000000e-02 0.0000000000e+00
4.1000000000e-01 1.0000000000e-02 0.0000000000e+00
4.2000000000e-01 1.0000000000e-02 0.0000000000e+00
4.3000000000e-01 1.0000000000e-02 0.0000000000e+00
4.4000000000e-01 1.0000000000e-02 0.0000000000e+00
4.5000000000e-01 1.0000000000e-02 0.0000000000e+00
4.6000000000e-01 1.0000000000e-02 0.0000000000e+00
4.7000000000e-01 1.0000000000e-02 0.0000000000e+00
4.8000000000e-01 1.0000000000e-02 0.0000000000e+00
4.9000000000e-01 1.0000000000e-02 0.0000000000e+00
5.0000000000e-01 1.0000000000e-02 0.0000000000e+00
5.1000000000e-01 1.0000000000e-02 0.0000000000e+00
5.2000000000e-01 1.0000000000e-02 0.0000000000e+00
5.3000000000e-01 1.0000000000e-02 0.0000000000e+00
5.4000000000e-01 1.0000000000e-02 0.0000000000e+00
5.5000000000e-01 1.0000000000e-02 0.0000000000e+00
5.6000000000e-01 1.0000000000e-02 0.0000000000e+00
5.7000000000e-01 1.0000000000e-02 0.0000000000e+00
5.8000000000e-01 1.0000000000e-02 0.0000000000e+00
5.9000000000e-01 1.0000000000e-02 0.0000000000e+00
6.0000000000e-01 1.0000000000e-02 0.0000000000e+00
6.1000000000e-01 1.0000000000e-02 0.0000000000e+00
6.2000000000e-01 1.0000000000e-02 0.0000000000e+00
6.3000000000e-01 1.0000000000e-02 0.0000000000e+00
6.4000000000e-01 1.0000000000e-02 0.0000000000e+00
6.5000000000e-01 1.0000000000e-02 0.0000000000e+00
6.6000000000e-01 1.0000000000e-02 0.0000000000e+00
6.7000000000e-01 1.0000000000e-02 0.0000000000e+00
6.8000000000e-01 1.0000000000e-02 0.0000000000e+00
6.9000000000e-01 1.0000000000e-02 0.0000000000e+00
7.0000000000e-01 1.0000000000e-02 0.0000000000e+00
7.1000000000e-01 1.0000000000e-02 0.0000000000e+00
7.2000000000e-01 1.0000000000e-02 0.0000000000e+00
7.3000000000e-01 1.0000000000e-02 0.0000000000e+00
7.4000000000e-01 1.0000000000e-02 0.0000000000e+00
7.5000000000e-01 1.0000000000e-02 0.0000000000e+00
7.6000000000e-01 1.0000000000e-02 0.0000000000e+00
7.7000000000e-01 1.0000000000e-02 0.0000000000e+00
7.8000000000e-01 1.0000000000e-02 0.0000000000e+00
7.9000000000e-01 1.0000000000e-02 0.0000000000e+00
8.0000000000e-01 1.0000000000e-02 0.0000000000e+00
8.1000000000e-01 1.0000000000e-02 0.0000000000e+00
8.2000000000e-01 1.0000000000e-02 0.0000000000e+00
8.3000000000e-01 1.0000000000e-02 0.0000000000e+00
8.4000000000e-01 1.0000000000e-02 0.0000000000e+00
8.5000000000e-01 1.0000000000e-02 0.0000000000e+00
8.6000000000e-01 1.0000000000e-02 0.0000000000e+00
8.7000000000e-01 1.0000000000e-02 0.0000000000e+00
8.8000000000e-01 1.0000000000e-02 0.0000000000e+00
8.9000000000e-01 1.0000000000e-02 0.0000000000e+00
9.0000000000e-01 1.0000000000e-02 0.0000000000e+00
9.1000000000e-01 1.0000000000e-02 0.0000000000e+00
9.2000000000e-01 1.0000000000e-02 0.0000000000e+00
[...]
CELL_DATA 10000

SCALARS massDensity float
LOOKUP_TABLE default
1.1901511730e+00
1.1904167543e+00
1.1907955508e+00
1.1913533751e+00
1.1920657033e+00
1.1929028808e+00
1.1938321829e+00
1.1948196358e+00
1.1958320658e+00
1.1968386588e+00
1.1978124926e+00
1.1987313854e+00
1.1995785770e+00
1.2003427228e+00
1.2010177469e+00
1.2016021701e+00
1.2020984319e+00
1.2025119189e+00
1.2028501402e+00
1.2031218084e+00
1.2033361662e+00
1.2035023339e+00
1.2036289192e+00
1.2037236799e+00
1.2037934039e+00
1.2038438221e+00
1.2038796683e+00
1.2039047361e+00
1.2039220189e+00
1.2039338188e+00
1.2039418934e+00
1.2039475616e+00
1.2039518203e+00
1.2039554247e+00
1.2039589669e+00
1.2039629291e+00
1.2039677293e+00
1.2039737554e+00
1.2039813869e+00
1.2039910181e+00
1.2040030643e+00
1.2040179797e+00
1.2040362515e+00
1.2040584161e+00
1.2040850420e+00
1.2041167416e+00
1.2041541400e+00
1.2041978765e+00
1.2042485517e+00
1.2043067082e+00
1.2043727448e+00
1.2044468668e+00
1.2045289624e+00
1.2046185290e+00
1.2047145308e+00
1.2048153390e+00
1.2049186283e+00
1.2050214102e+00
1.2051200530e+00
1.2052104902e+00
1.2052884208e+00
1.2053497055e+00
1.2053906958e+00
1.2054087015e+00
1.2054022646e+00
1.2053714785e+00
1.2053179831e+00
1.2052449521e+00
1.2051567178e+00
1.2050584389e+00
1.2049555006e+00
1.2048530911e+00
1.2047556723e+00
1.2046667397e+00
1.2045885917e+00
1.2045223875e+00
1.2044682261e+00
1.2044254083e+00
1.2043926638e+00
1.2043684346e+00
1.2043510756e+00
1.2043390338e+00
1.2043309420e+00
1.2043256753e+00
1.2043223543e+00
1.2043203258e+00
1.2043191255e+00
1.2043184375e+00
1.2043180556e+00
1.2043178503e+00
1.2043177434e+00
1.2043176896e+00
1.2043176633e+00
1.2043176509e+00
1.2043176453e+00
1.2043176428e+00
1.2043176417e+00
1.2043176413e+00
1.2043176411e+00
1.2043176410e+00
1.1904167543e+00
1.1906947229e+00
1.1910756745e+00
1.1916302666e+00
1.1923353074e+00
1.1931623442e+00
1.1940794449e+00
1.1950534698e+00
1.1960517601e+00
1.1970441188e+00
1.1980039567e+00
1.1989095258e+00
1.1997442428e+00
1.2004970245e+00
1.2011618364e+00
1.2017373120e+00
1.2022258294e+00
1.2026327786e+00
1.2029655444e+00
1.2032327783e+00
1.2034435742e+00
1.2036069653e+00
1.2037314152e+00
1.2038245943e+00
1.2038931665e+00
1.2039427875e+00
1.2039780915e+00
1.2040028110e+00
1.2040198592e+00
1.2040314857e+00
1.2040393798e+00
1.2040448081e+00
1.2040487016e+00
1.2040517554e+00
1.2040544891e+00
1.2040573086e+00
1.2040605447e+00
1.2040644858e+00
1.2040694021e+00
1.2040755585e+00
1.2040832328e+00
1.2040927148e+00
1.2041043229e+00
1.2041183935e+00
1.2041352985e+00
1.2041554266e+00
1.2041792011e+00
1.2042070516e+00
1.2042394292e+00
1.2042767627e+00
1.2043194622e+00
1.2043678481e+00
1.2044221316e+00
1.2044823068e+00
1.2045481044e+00
1.2046188562e+00
1.2046934479e+00
1.2047702035e+00
1.2048469063e+00
1.2049207823e+00
1.2049886720e+00
1.2050471718e+00
1.2050929806e+00
1.2051231587e+00
1.2051355501e+00
1.2051289925e+00
1.2051036157e+00
1.2050607992e+00
1.2050031838e+00
1.2049343022e+00
1.2048583271e+00
1.2047795208e+00
1.2047019299e+00
1.2046289235e+00
1.2045630614e+00
1.2045059053e+00
1.2044581298e+00
1.2044195904e+00
1.2043895739e+00
1.2043669727e+00
1.2043505200e+00
1.2043389302e+00
1.2043310312e+00
1.2043258190e+00
1.2043224903e+00
1.2043204318e+00
1.2043191995e+00
1.2043184852e+00
1.2043180845e+00
1.2043178669e+00
1.2043177525e+00
1.2043176943e+00
1.2043176657e+00
1.2043176521e+00
1.2043176458e+00
1.2043176430e+00
1.2043176418e+00
1.2043176413e+00
1.2043176411e+00
1.2043176411e+00
1.1907955508e+00
1.1910756745e+00
1.1914489102e+00
1.1919896720e+00
1.1926758934e+00
1.1934800643e+00
1.1943714738e+00
1.1953178896e+00
1.1962877950e+00
1.1972517495e+00
1.1981840860e+00
1.1990635654e+00
1.1998742143e+00
1.2006051717e+00
1.2012506903e+00
1.2018093700e+00
1.2022836138e+00
1.2026786027e+00
1.2030015810e+00
1.2032609097e+00
1.2034654736e+00
1.2036240115e+00
1.2037447793e+00
1.2038351972e+00
1.2039017612e+00
1.2039499389e+00
1.2039842459e+00
1.2040082862e+00
1.2040248984e+00
1.2040362499e+00
1.2040439859e+00
1.2040493226e+00
1.2040531647e+00
1.2040561751e+00
1.2040588546e+00
1.2040615864e+00
1.2040646824e+00
1.2040684106e+00
1.2040730174e+00
1.2040787453e+00
1.2040858392e+00
1.2040945605e+00
1.2041051826e+00
1.2041180056e+00
1.2041333442e+00
1.2041515451e+00
1.2041729695e+00
1.2041980141e+00
1.2042270868e+00
1.2042606264e+00
1.2042990638e+00
1.2043428263e+00
1.2043922666e+00
1.2044476328e+00
1.2045089492e+00
1.2045759452e+00
1.2046479020e+00
1.2047235793e+00
1.2048010956e+00
1.2048779476e+00
1.2049510277e+00
1.2050168356e+00
1.2050716917e+00
1.2051121454e+00
1.2051353001e+00
1.2051392657e+00
1.2051233670e+00
1.2050883964e+00
1.2050364836e+00
1.2049710058e+00
1.2048961017e+00
1.2048163416e+00
1.2047361195e+00
1.2046593547e+00
1.2045890668e+00
1.2045273218e+00
1.2044751274e+00
1.2044326268e+00
1.2043992288e+00
1.2043738929e+00
1.2043553150e+00
1.2043421481e+00
1.2043331200e+00
1.2043271328e+00
1.2043232897e+00
1.2043209031e+00
1.2043194684e+00
1.2043186338e+00
1.2043181639e+00
1.2043179080e+00
1.2043177731e+00
1.2043177043e+00
1.2043176704e+00
1.2043176542e+00
1.2043176467e+00
1.2043176434e+00
1.2043176420e+00
1.2043176414e+00
1.2043176412e+00
1.2043176411e+00
1.1913533751e+00
1.1916302666e+00
1.1919896720e+00
1.1925090184e+00
1.1931670992e+00
1.1939378236e+00
1.1947917015e+00
1.1956981141e+00
1.1966267524e+00
1.1975496409e+00
1.1984420617e+00
1.1992838638e+00
1.2000596281e+00
1.2007591112e+00
1.2013767109e+00
1.2019112114e+00
1.2023648376e+00
1.2027426442e+00
1.2030515088e+00
1.2032995034e+00
1.2034950879e+00
1.2036466741e+00
1.2037621281e+00
1.2038485835e+00
1.2039122279e+00
1.2039583147e+00
1.2039911415e+00
1.2040141706e+00
1.2040300990e+00
1.2040410094e+00
1.2040484609e+00
1.2040536215e+00
1.2040573449e+00
1.2040602662e+00
1.2040628543e+00
1.2040654723e+00
1.2040684092e+00
1.2040719127e+00
1.2040762080e+00
1.2040815115e+00
1.2040880438e+00
1.2040960304e+00
1.2041057139e+00
1.2041173466e+00
1.2041312049e+00
1.2041475787e+00
1.2041667908e+00
1.2041891859e+00
1.2042151566e+00
1.2042451278e+00
1.2042795811e+00
1.2043190196e+00
1.2043639662e+00
1.2044148809e+00
1.2044721036e+00
1.2045357057e+00
1.2046053769e+00
1.2046802437e+00
1.2047587697e+00
1.2048386476e+00
1.2049168446e+00
1.2049896963e+00
1.2050532018e+00
1.2051033487e+00
1.2051366073e+00
1.2051503190e+00
1.2051431559e+00
1.2051152723e+00
1.2050684565e+00
1.2050058464e+00
1.2049317008e+00
1.2048507750e+00
1.2047679263e+00
1.2046874822e+00
1.2046129969e+00
1.2045469104e+00
1.2044906096e+00
1.2044444305e+00
1.2044079349e+00
1.2043800955e+00
1.2043595945e+00
1.2043450023e+00
1.2043349645e+00
1.2043282853e+00
1.2043239877e+00
1.2043213118e+00
1.2043197003e+00
1.2043187610e+00
1.2043182316e+00
1.2043179427e+00
1.2043177904e+00
1.2043177126e+00
1.2043176742e+00
1.2043176559e+00
1.2043176475e+00
1.2043176437e+00
1.2043176421e+00
1.2043176414e+00
1.2043176412e+00
1.2043176411e+00
1.1920657033e+00
1.1923353074e+00
1.1926758934e+00
1.1931670992e+00
1.1937890233e+00
1.1945168785e+00
1.1953230604e+00
1.1961785041e+00
1.1970548469e+00
1.1979255144e+00
1.1987674053e+00
1.1995613471e+00
1.2002929853e+00
1.2009525261e+00
1.2015348431e+00
1.2020386906e+00
1.2024662903e+00
1.2028223365e+00
1.2031134065e+00
1.2033470585e+00
1.2035313342e+00
1.2036741241e+00
1.2037828887e+00
1.2038643212e+00
1.2039242843e+00
1.2039677045e+00
1.2039986524e+00
1.2040203708e+00
1.2040354150e+00
1.2040457313e+00
1.2040527976e+00
1.2040577021e+00
1.2040612539e+00
1.2040640414e+00
1.2040665076e+00
1.2040689863e+00
1.2040717466e+00
1.2040750139e+00
1.2040789919e+00
1.2040838748e+00
1.2040898548e+00
1.2040971307e+00
1.2041059064e+00
1.2041164004e+00
1.2041288398e+00
1.2041434763e+00
1.2041605805e+00
1.2041804685e+00
1.2042035003e+00
1.2042301148e+00
1.2042608231e+00
1.2042962329e+00
1.2043370089e+00
1.2043838472e+00
1.2044373637e+00
1.2044979845e+00
1.2045657531e+00
1.2046401626e+00
1.2047199548e+00
1.2048030144e+00
1.2048863159e+00
1.2049660463e+00
1.2050378305e+00
1.2050971555e+00
1.2051398241e+00
1.2051625307e+00
1.2051632624e+00
1.2051417034e+00
1.2050992423e+00
1.2050389563e+00
1.2049651190e+00
1.2048828248e+00
1.2047972472e+00
1.2047132334e+00
1.2046347148e+00
1.2045645773e+00
1.2045044548e+00
1.2044549220e+00
1.2044156066e+00
1.2043855274e+00
1.2043633090e+00
1.2043474635e+00
1.2043365401e+00
1.2043292629e+00
1.2043245738e+00
1.2043216523e+00
1.2043198914e+00
1.2043188650e+00
1.2043182862e+00
1.2043179705e+00
1.2043178040e+00
1.2043177191e+00
1.2043176772e+00
1.2043176572e+00
1.2043176480e+00
1.2043176440e+00
1.2043176422e+00
1.2043176415e+00
1.2043176412e+00
1.2043176411e+00
1.1929028808e+00
1.1931623442e+00
1.1934800643e+00
1.1939378236e+00
1.1945168785e+00
1.1951943466e+00
1.1959443444e+00
1.1967400768e+00
1.1975549587e+00
1.1983645223e+00
1.1991470948e+00
1.1998850743e+00
1.2005649548e+00
1.2011778222e+00
1.2017187868e+00
1.2021868424e+00
1.2025839615e+00
1.2029146211e+00
1.2031848658e+00
1.2034018004e+00
1.2035728468e+00
1.2037053920e+00
1.2038063289e+00
1.2038819127e+00
1.2039375595e+00
1.2039778703e+00
1.2040066021e+00
1.2040267835e+00
1.2040407692e+00
1.2040503781e+00
1.2040569684e+00
1.2040615583e+00
1.2040648880e+00
1.2040675085e+00
1.2040698227e+00
1.2040721415e+00
1.2040747077e+00
1.2040777274e+00
1.2040813820e+00
1.2040858430e+00
1.2040912787e+00
1.2040978569e+00
1.2041057518e+00
1.2041151408e+00
1.2041262154e+00
1.2041391788e+00
1.2041542680e+00
1.2041717584e+00
1.2041920015e+00
1.2042154358e+00
1.2042426292e+00
1.2042742765e+00
1.2043112100e+00
1.2043543368e+00
1.2044045640e+00
1.2044626339e+00
1.2045289416e+00
1.2046032923e+00
1.2046846876e+00
1.2047711417e+00
1.2048596190e+00
1.2049461029e+00
1.2050258596e+00
1.2050938412e+00
1.2051452602e+00
1.2051761444e+00
1.2051839403e+00
1.2051678291e+00
1.2051289857e+00
1.2050703476e+00
1.2049963881e+00
1.2049124042e+00
1.2048240360e+00
1.2047364780e+00
1.2046541435e+00
1.2045801982e+00
1.2045165909e+00
1.2044640096e+00
1.2044221934e+00
1.2043901331e+00
1.2043664292e+00
1.2043495034e+00
1.2043378327e+00
1.2043300534e+00
1.2043250422e+00
1.2043219202e+00
1.2043200398e+00
1.2043189443e+00
1.2043183271e+00
1.2043179909e+00
1.2043178138e+00
1.2043177236e+00
1.2043176792e+00
1.2043176581e+00
1.2043176484e+00
1.2043176441e+00
1.2043176423e+00
1.2043176415e+00
1.2043176412e+00
1.2043176411e+00
1.1938321829e+00
1.1940794449e+00
1.1943714738e+00
1.1947917015e+00
1.1953230604e+00
1.1959443444e+00
1.1966320393e+00
1.1973613553e+00
1.1981081749e+00
1.1988498575e+00
1.1995667882e+00
1.2002426510e+00
1.2008652896e+00
1.2014263879e+00
1.2019216457e+00
1.2023500284e+00
1.2027134802e+00
1.2030160183e+00
1.2032632777e+00
1.2034617032e+00
1.2036181597e+00
1.2037393645e+00
1.2038316743e+00
1.2039007801e+00
1.2039516703e+00
1.2039885288e+00
1.2040148148e+00
1.2040332788e+00
1.2040460899e+00
1.2040548962e+00
1.2040609508e+00
1.2040651729e+00
1.2040682470e+00
1.2040706680e+00
1.2040728087e+00
1.2040749464e+00
1.2040773040e+00
1.2040800634e+00
1.2040833870e+00
1.2040874233e+00
1.2040923158e+00
1.2040982062e+00
1.2041052348e+00
1.2041135466e+00
1.2041232907e+00
1.2041346357e+00
1.2041477766e+00
1.2041629674e+00
1.2041805417e+00
1.2042009621e+00
1.2042248439e+00
1.2042529946e+00
1.2042864006e+00
1.2043261988e+00
1.2043735642e+00
1.2044295562e+00
1.2044948822e+00
1.2045696360e+00
1.2046530257e+00
1.2047431560e+00
1.2048369276e+00
1.2049300954e+00
1.2050175303e+00
1.2050936777e+00
1.2051531453e+00
1.2051913996e+00
1.2052053347e+00
1.2051938019e+00
1.2051577141e+00
1.2051000719e+00
1.2050254349e+00
1.2049394887e+00
1.2048481679e+00
1.2047571561e+00
1.2046711571e+00
1.2045937126e+00
1.2045269216e+00
1.2044716492e+00
1.2044276352e+00
1.2043938872e+00
1.2043689241e+00
1.2043511100e+00
1.2043388289e+00
1.2043306519e+00
1.2043253882e+00
1.2043221138e+00
1.2043201439e+00
1.2043189984e+00
1.2043183542e+00
1.2043180039e+00
1.2043178198e+00
1.2043177263e+00
1.2043176804e+00
1.2043176586e+00
1.2043176486e+00
1.2043176442e+00
1.2043176423e+00
1.2043176415e+00
1.2043176412e+00
1.2043176411e+00
1.1948196358e+00
1.1950534698e+00
1.1953178896e+00
1.1956981141e+00
1.1961785041e+00
1.1967400768e+00
1.1973613553e+00
1.1980201810e+00
1.1986945391e+00
1.1993642328e+00
1.2000113404e+00
1.2006213651e+00
1.2011831593e+00
1.2016894168e+00
1.2021361228e+00
1.2025225033e+00
1.2028502138e+00
1.2031229985e+00
1.2033458697e+00
1.2035247262e+00
1.2036657079e+00
1.2037749317e+00
1.2038580909e+00
1.2039203568e+00
1.2039661970e+00
1.2039994102e+00
1.2040230917e+00
1.2040397391e+00
1.2040512894e+00
1.2040592415e+00
1.2040647108e+00
1.2040685355e+00
1.2040713222e+00
1.2040735238e+00
1.2040754684e+00
1.2040774098e+00
1.2040795425e+00
1.2040820305e+00
1.2040850129e+00
1.2040886184e+00
1.2040929659e+00
1.2040981697e+00
1.2041043411e+00
1.2041115890e+00
1.2041200290e+00
1.2041297899e+00
1.2041410387e+00
1.2041540029e+00
1.2041690185e+00
1.2041865680e+00
1.2042073380e+00
1.2042322443e+00
1.2042624488e+00
1.2042993078e+00
1.2043442706e+00
1.2043986892e+00
1.2044635627e+00
1.2045392322e+00
1.2046250637e+00
1.2047192030e+00
1.2048184323e+00
1.2049182393e+00
1.2050130802e+00
1.2050968797e+00
1.2051636969e+00
1.2052084389e+00
1.2052275900e+00
1.2052196533e+00
1.2051854823e+00
1.2051280595e+00
1.2050522437e+00
1.2049639523e+00
1.2048695939e+00
1.2047751370e+00
1.2046857061e+00
1.2046050188e+00
1.2045354127e+00
1.2044777777e+00
1.2044319147e+00
1.2043967577e+00
1.2043707874e+00
1.2043522702e+00
1.2043395275e+00
1.2043310544e+00
1.2043256120e+00
1.2043222324e+00
1.2043202043e+00
1.2043190275e+00
1.2043183675e+00
1.2043180096e+00
1.2043178221e+00
1.2043177271e+00
1.2043176806e+00
1.2043176586e+00
1.2043176486e+00
1.2043176441e+00
1.2043176423e+00
1.2043176415e+00
1.2043176412e+00
1.2043176411e+00
1.1958320658e+00
1.1960517601e+00
1.1962877950e+00
1.1966267524e+00
1.1970548469e+00
1.1975549587e+00
1.1981081749e+00
1.1986945391e+00
1.1992946972e+00
1.1998904556e+00
1.2004661067e+00
1.2010085629e+00
1.2015081221e+00
1.2019581343e+00
1.2023552059e+00
1.2026985341e+00
1.2029897280e+00
1.2032320323e+00
1.2034300026e+00
1.2035888210e+00
1.2037140138e+00
1.2038109721e+00
1.2038848017e+00
1.2039400631e+00
1.2039807571e+00
1.2040102319e+00
1.2040312584e+00
1.2040460346e+00
1.2040562964e+00
1.2040633592e+00
1.2040682251e+00
1.2040716267e+00
1.2040741114e+00
1.2040760724e+00
1.2040778075e+00
1.2040795349e+00
1.2040814304e+00
1.2040836327e+00
1.2040862637e+00
1.2040894284e+00
1.2040932238e+00
1.2040977375e+00
1.2041030506e+00
1.2041092406e+00
1.2041163872e+00
1.2041245886e+00
1.2041339817e+00
1.2041447828e+00
1.2041573298e+00
1.2041721462e+00
1.2041899917e+00
1.2042119127e+00
1.2042392462e+00
1.2042735796e+00
1.2043166263e+00
1.2043700172e+00
1.2044350152e+00
1.2045121601e+00
1.2046009337e+00
1.2046994506e+00
1.2048043350e+00
1.2049107484e+00
1.2050127158e+00
1.2051036447e+00
1.2051770549e+00
1.2052273916e+00
1.2052507363e+00
1.2052454275e+00
1.2052122149e+00
1.2051542888e+00
1.2050766783e+00
1.2049857458e+00
1.2048881716e+00
1.2047903766e+00
1.2046976798e+00
1.2046140927e+00
1.2045419972e+00
1.2044823889e+00
1.2044350002e+00
1.2043987481e+00
1.2043720084e+00
1.2043529896e+00
1.2043399268e+00
1.2043312651e+00
1.2043257144e+00
1.2043222783e+00
1.2043202218e+00
1.2043190325e+00
1.2043183676e+00
1.2043180083e+00
1.2043178207e+00
1.2043177261e+00
1.2043176800e+00
1.2043176583e+00
1.2043176484e+00
1.2043176441e+00
1.2043176422e+00
1.2043176415e+00
1.2043176412e+00
1.2043176411e+00
1.1968386588e+00
1.1970441188e+00
1.1972517495e+00
1.1975496409e+00
1.1979255144e+00
1.1983645223e+00
1.1988498575e+00
1.1993642328e+00
1.1998904556e+00
1.2004128033e+00
1.2009173058e+00
1.2013927084e+00
1.2018303420e+00
1.2022245667e+00
1.2025722808e+00
1.2028729314e+00
1.2031278328e+00
1.2033399404e+00
1.2035131748e+00
1.2036521550e+00
1.2037616692e+00
1.2038464930e+00
1.2039110585e+00
1.2039593950e+00
1.2039949754e+00
1.2040207553e+00
1.2040391371e+00
1.2040520622e+00
1.2040610320e+00
1.2040672107e+00
1.2040714619e+00
1.2040744367e+00
1.2040766041e+00
1.2040783160e+00
1.2040798249e+00
1.2040813272e+00
1.2040829692e+00
1.2040848736e+00
1.2040871384e+00
1.2040898505e+00
1.2040930817e+00
1.2040968948e+00
1.2041013415e+00
1.2041064680e+00
1.2041123228e+00
1.2041189738e+00
1.2041265381e+00
1.2041352229e+00
1.2041453854e+00
1.2041575959e+00
1.2041727082e+00
1.2041919065e+00
1.2042167190e+00
1.2042489658e+00
1.2042906185e+00
1.2043435733e+00
1.2044093145e+00
1.2044885492e+00
1.2045807955e+00
1.2046841000e+00
1.2047948406e+00
1.2049078328e+00
1.2050166243e+00
1.2051141168e+00
1.2051933345e+00
1.2052482865e+00
1.2052747989e+00
1.2052710379e+00
1.2052378704e+00
1.2051786036e+00
1.2050986743e+00
1.2050047049e+00
1.2049038519e+00
1.2048027483e+00
1.2047070597e+00
1.2046208598e+00
1.2045466812e+00
1.2044854515e+00
1.2044369086e+00
1.2043998517e+00
1.2043726035e+00
1.2043532710e+00
1.2043400380e+00
1.2043312882e+00
1.2043257017e+00
1.2043222542e+00
1.2043201991e+00
1.2043190148e+00
1.2043183555e+00
1.2043180007e+00
1.2043178162e+00
1.2043177236e+00
1.2043176786e+00
1.2043176576e+00
1.2043176481e+00
1.2043176439e+00
1.2043176422e+00
1.2043176414e+00
1.2043176412e+00
1.2043176411e+00
1.1978124926e+00
1.1980039567e+00
1.1981840860e+00
1.1984420617e+00
1.1987674053e+00
1.1991470948e+00
1.1995667882e+00
1.2000113404e+00
1.2004661067e+00
1.2009173058e+00
1.2013530811e+00
1.2017635398e+00
1.2021413864e+00
1.2024816127e+00
1.2027816998e+00
1.2030410653e+00
1.2032609672e+00
1.2034438788e+00
1.2035932740e+00
1.2037130816e+00
1.2038074963e+00
1.2038805954e+00
1.2039362452e+00
1.2039778889e+00
1.2040085508e+00
1.2040307545e+00
1.2040465922e+00
1.2040577180e+00
1.2040654416e+00
1.2040707514e+00
1.2040744038e+00
1.2040769484e+00
1.2040787987e+00
1.2040802492e+00
1.2040815243e+00
1.2040827853e+00
1.2040841620e+00
1.2040857513e+00
1.2040876356e+00
1.2040898773e+00
1.2040925280e+00
1.2040956229e+00
1.2040991868e+00
1.2041032353e+00
1.2041077879e+00
1.2041128879e+00
1.2041186367e+00
1.2041252453e+00
1.2041330983e+00
1.2041428316e+00
1.2041554056e+00
1.2041721602e+00
1.2041948258e+00
1.2042254570e+00
1.2042662836e+00
1.2043194339e+00
1.2043865944e+00
1.2044685620e+00
1.2045648601e+00
1.2046733613e+00
1.2047901750e+00
1.2049096835e+00
1.2050249660e+00
1.2051284067e+00
1.2052125709e+00
1.2052711305e+00
1.2052996805e+00
1.2052964133e+00
1.2052622658e+00
1.2052009090e+00
1.2051180345e+00
1.2050207605e+00
1.2049164810e+00
1.2048122297e+00
1.2047137574e+00
1.2046253364e+00
1.2045494314e+00
1.2044869986e+00
1.2044376384e+00
1.2044001002e+00
1.2043725823e+00
1.2043531367e+00
1.2043398707e+00
1.2043311361e+00
1.2043255797e+00
1.2043221661e+00
1.2043201393e+00
1.2043189768e+00
1.2043183324e+00
1.2043179874e+00
1.2043178089e+00
1.2043177197e+00
1.2043176767e+00
1.2043176566e+00
1.2043176476e+00
1.2043176437e+00
1.2043176421e+00
1.2043176414e+00
1.2043176412e+00
1.2043176411e+00
1.1987313854e+00
1.1989095258e+00
1.1990635654e+00
1.1992838638e+00
1.1995613471e+00
1.1998850743e+00
1.2002426510e+00
1.2006213651e+00
1.2010085629e+00
1.2013927084e+00
1.2017635398e+00
1.2021128240e+00
1.2024342106e+00
1.2027235998e+00
1.2029787369e+00
1.2031992566e+00
1.2033861445e+00
1.2035416023e+00
1.2036685215e+00
1.2037703131e+00
1.2038504963e+00
1.2039125859e+00
1.2039598327e+00
1.2039951960e+00
1.2040212182e+00
1.2040400669e+00
1.2040534978e+00
1.2040629332e+00
1.2040694686e+00
1.2040739568e+00
1.2040770269e+00
1.2040791563e+00
1.2040806858e+00
1.2040818737e+00
1.2040829016e+00
1.2040839118e+00
1.2040850052e+00
1.2040862646e+00
1.2040877475e+00
1.2040894996e+00
1.2040915461e+00
1.2040938996e+00
1.2040965552e+00
1.2040995018e+00
1.2041027318e+00
1.2041062691e+00
1.2041102081e+00
1.2041147729e+00
1.2041203911e+00
1.2041277796e+00
1.2041380237e+00
1.2041526369e+00
1.2041735598e+00
1.2042030926e+00
1.2042437008e+00
1.2042977387e+00
1.2043670258e+00
1.2044524255e+00
1.2045533540e+00
1.2046674873e+00
1.2047905487e+00
1.2049164912e+00
1.2050378622e+00
1.2051465688e+00
1.2052347610e+00
1.2052958223e+00
1.2053252775e+00
1.2053213417e+00
1.2052852625e+00
1.2052209649e+00
1.2051346525e+00
1.2050337189e+00