# vtk DataFile Version 2.0
Blank
ASCII
DATASET STRUCTURED_GRID
DIMENSIONS 101 101 2
POINTS 20402 float
0.0000000000e+00 0.0000000000e+00 0.0000000000e+00
1.0000000000e-02 0.0000000000e+00 0.0000000000e+00
2.0000000000e-02 0.0000000000e+00 0.0000000000e+00
3.0000000000e-02 0.0000000000e+00 0.0000000000e+00
4.0000000000e-02 0.0000000000e+00 0.0000000000e+00
5.0000000000e-02 0.0000000000e+00 0.0000000000e+00
6.0000000000e-02 0.0000000000e+00 0.0000000000e+00
7.0000000000e-02 0.0000000000e+00 0.0000000000e+00
8.0000000000e-02 0.0000000000e+00 0.0000000000e+00
9.0000000000e-02 0.0000000000e+00 0.0000000000e+00
1.0000000000e-01 0.0000000000e+00 0.0000000000e+00
1.1000000000e-01 0.0000000000e+00 0.0000000000e+00
1.2000000000e-01 0.0000000000e+00 0.0000000000e+00
1.3000000000e-01 0.0000000000e+00 0.0000000000e+00
1.4000000000e-01 0.0000000000e+00 0.0000000000e+00
1.5000000000e-01 0.0000000000e+00 0.0000000000e+00
1.6000000000e-01 0.0000000000e+00 0.0000000000e+00
1.7000000000e-01 0.0000000000e+00 0.0000000000e+00
1.8000000000e-01 0.0000000000e+00 0.0000000000e+00
1.9000000000e-01 0.0000000000e+00 0.0000000000e+00
2.0000000000e-01 0.0000000000e+00 0.0000000000e+00
2.1000000000e-01 0.0000000000e+00 0.0000000000e+00
2.2000000000e-01 0.0000000000e+00 0.0000000000e+00
2.3000000000e-01 0.0000000000e+00 0.0000000000e+00
2.4000000000e-01 0.0000000000e+00 0.0000000000e+00
2.5000000000e-01 0.0000000000e+00 0.0000000000e+00
2.6000000000e-01 0.0000000000e+00 0.0000000000e+00
2.7000000000e-01 0.0000000000e+00 0.0000000000e+00
2.8000000000e-01 0.0000000000e+00 0.0000000000e+00
2.9000000000e-01 0.0000000000e+00 0.0000000000e+00
3.0000000000e-01 0.0000000000e+00 0.0000000000e+00
3.1000000000e-01 0.0000000000e+00 0.0000000000e+00
3.2000000000e-01 0.0000000000e+00 0.0000000000e+00
3.3000000000e-01 0.0000000000e+00 0.0000000000e+00
3.4000000000e-01 0.0000000000e+00 0.0000000000e+00
3.5000000000e-01 0.0000000000e+00 0.0000000000e+00
3.6000000000e-01 0.0000000000e+00 0.0000000000e+00
3.7000000000e-01 0.0000000000e+00 0.0000000000e+00
3.8000000000e-01 0.0000000000e+00 0.0000000000e+00
3.9000000000e-01 0.0000000000e+00 0.0000000000e+00
4.0000000000e-01 0.0000000000e+00 0.0000000000e+00
4.1000000000e-01 0.0000000000e+00 0.0000000000e+00
4.2000000000e-01 0.0000000000e+00 0.0000000000e+00
4.3000000000e-01 0.0000000000e+00 0.0000000000e+00
4.4000000000e-01 0.0000000000e+00 0.0000000000e+00
4.5000000000e-01 0.0000000000e+00 0.0000000000e+00
4.6000000000e-01 0.0000000000e+00 0.0000000000e+00
4.7000000000e-01 0.0000000000e+00 0.0000000000e+00
4.8000000000e-01 0.0000000000e+00 0.0000000000e+00
4.9000000000e-01 0.0000000000e+00 0.0000000000e+00
5.0000000000e-01 0.0000000000e+00 0.0000000000e+00
5.1000000000e-01 0.0000000000e+00 0.0000000000e+00
5.2000000000e-01 0.0000000000e+00 0.0000000000e+00
5.3000000000e-01 0.0000000000e+00 0.0000000000e+00
5.4000000000e-01 0.0000000000e+00 0.0000000000e+00
5.5000000000e-01 0.0000000000e+00 0.0000000000e+00
5.6000000000e-01 0.0000000000e+00 0.0000000000e+00
5.7000000000e-01 0.0000000000e+00 0.0000000000e+00
5.8000000000e-01 0.0000000000e+00 0.0000000000e+00
5.9000000000e-01 0.0000000000e+00 0.0000000000e+00
6.0000000000e-01 0.0000000000e+00 0.0000000000e+00
6.1000000000e-01 0.0000000000e+00 0.0000000000e+00
6.2000000000e-01 0.0000000000e+00 0.0000000000e+00
6.3000000000e-01 0.0000000000e+00 0.0000000000e+00
6.4000000000e-01 0.0000000000e+00 0.0000000000e+00
6.5000000000e-01 0.0000000000e+00 0.0000000000e+00
6.6000000000e-01 0.0000000000e+00 0.0000000000e+00
6.7000000000e-01 0.0000000000e+00 0.0000000000e+00
6.8000000000e-01 0.0000000000e+00 0.0000000000e+00
6.9000000000e-01 0.0000000000e+00 0.0000000000e+00
7.0000000000e-01 0.0000000000e+00 0.0000000000e+00
7.1000000000e-01 0.0000000000e+00 0.0000000000e+00
7.2000000000e-01 0.0000000000e+00 0.0000000000e+00
7.3000000000e-01 0.0000000000e+00 0.0000000000e+00
7.4000000000e-01 0.0000000000e+00 0.0000000000e+00
7.5000000000e-01 0.0000000000e+00 0.0000000000e+00
7.6000000000e-01 0.0000000000e+00 0.0000000000e+00
7.7000000000e-01 0.0000000000e+00 0.0000000000e+00
7.8000000000e-01 0.0000000000e+00 0.0000000000e+00
7.9000000000e-01 0.0000000000e+00 0.0000000000e+00
8.0000000000e-01 0.0000000000e+00 0.0000000000e+00
8.1000000000e-01 0.0000000000e+00 0.0000000000e+00
8.2000000000e-01 0.0000000000e+00 0.0000000000e+00
8.3000000000e-01 0.0000000000e+00 0.0000000000e+00
8.4000000000e-01 0.0000000000e+00 0.0000000000e+00
8.5000000000e-01 0.0000000000e+00 0.0000000000e+00
8.6000000000e-01 0.0000000000e+00 0.0000000000e+00
8.7000000000e-01 0.0000000000e+00 0.0000000000e+00
8.8000000000e-01 0.0000000000e+00 0.0000000000e+00
8.9000000000e-01 0.0000000000e+00 0.0000000000e+00
9.0000000000e-01 0.0000000000e+00 0.0000000000e+00
9.1000000000e-01 0.0000000000e+00 0.0000000000e+00
9.2000000000e-01 0.0000000000e+00 0.0000000000e+00
9.3000000000e-01 0.0000000000e+00 0.0000000000e+00
9.4000000000e-01 0.0000000000e+00 0.0000000000e+00
9.5000000000e-01 0.0000000000e+00 0.0000000000e+00
9.6000000000e-01 0.0000000000e+00 0.0000000000e+00
9.7000000000e-01 0.0000000000e+00 0.0000000000e+00
9.8000000000e-01 0.0000000000e+00 0.0000000000e+00
9.9000000000e-01 0.0000000000e+00 0.0000000000e+00
1.0000000000e+00 0.0000000000e+00 0.0000000000e+00
0.0000000000e+00 1.0000000000e-02 0.0000000000e+00
1.0000000000e-02 1.0000000000e-02 0.0000000000e+00
2.0000000000e-02 1.0000000000e-02 0.0000000000e+00
3.0000000000e-02 1.0000000000e-02 0.0000000000e+00
4.0000000000e-02 1.0000000000e-02 0.0000000000e+00
5.0000000000e-02 1.0000000000e-02 0.0000000000e+00
6.0000000000e-02 1.0000000000e-02 0.0000000000e+00
7.0000000000e-02 1.0000000000e-02 0.0000000000e+00
8.0000000000e-02 1.0000000000e-02 0.0000000000e+00
9.0000000000e-02 1.0000000000e-02 0.0000000000e+00
1.0000000000e-01 1.0000000000e-02 0.0000000000e+00
1.1000000000e-01 1.0000000000e-02 0.0000000000e+00
1.2000000000e-01 1.0000000000e-02 0.0000000000e+00
1.3000000000e-01 1.0000000000e-02 0.0000000000e+00
1.4000000000e-01 1.0000000000e-02 0.0000000000e+00
1.5000000000e-01 1.0000000000e-02 0.0000000000e+00
1.6000000000e-01 1.0000000000e-02 0.0000000000e+00
1.7000000000e-01 1.0000000000e-02 0.0000000000e+00
1.8000000000e-01 1.0000000000e-02 0.0000000000e+00
1.9000000000e-01 1.0000000000e-02 0.0000000000e+00
2.0000000000e-01 1.0000000000e-02 0.0000000000e+00
2.1000000000e-01 1.0000000000e-02 0.0000000000e+00
2.2000000000e-01 1.0000000000e-02 0.0000000000e+00
2.3000000000e-01 1.0000000000e-02 0.0000000000e+00
2.4000000000e-01 1.0000000000e-02 0.0000000000e+00
2.5000000000e-01 1.0000000000e-02 0.0000000000e+00
2.6000000000e-01 1.0000000000e-02 0.0000000000e+00
2.7000000000e-01 1.0000000000e-02 0.0000000000e+00
2.8000000000e-01 1.0000000000e-02 0.0000000000e+00
2.9000000000e-01 1.0000000000e-02 0.0000000000e+00
3.0000000000e-01 1.0000000000e-02 0.0000000000e+00
3.1000000000e-01 1.0000000000e-02 0.0000000000e+00
3.2000000000e-01 1.0000000000e-02 0.0000000000e+00
3.3000000000e-01 1.0000000000e-02 0.0000000000e+00
3.4000000000e-01 1.0000000000e-02 0.0000000000e+00
3.5000000000e-01 1.0000000000e-02 0.0000000000e+00
3.6000000000e-01 1.0000000000e-02 0.0000000000e+00
3.7000000000e-01 1.0000000000e-02 0.0000000000e+00
3.8000000000e-01 1.0000000000e-02 0.0000000000e+00
3.9000000000e-01 1.0000000000e-02 0.0000000000e+00
4.0000000000e-01 1.0000000000e-02 0.0000000000e+00
4.1000000000e-01 1.0000000000e-02 0.0000000000e+00
4.2000000000e-01 1.0000000000e-02 0.0000000000e+00
4.3000000000e-01 1.0000000000e-02 0.0000000000e+00
4.4000000000e-01 1.0000000000e-02 0.0000000000e+00
4.5000000000e-01 1.0000000000e-02 0.0000000000e+00
4.6000000000e-01 1.0000000000e-02 0.0000000000e+00
4.7000000000e-01 1.0000000000e-02 0.0000000000e+00
4.8000000000e-01 1.0000000000e-02 0.0000000000e+00
4.9000000000e-01 1.0000000000e-02 0.0000000000e+00
5.0000000000e-01 1.0000000000e-02 0.0000000000e+00
5.1000000000e-01 1.0000000000e-02 0.0000000000e+00
5.2000000000e-01 1.0000000000e-02 0.0000000000e+00
5.3000000000e-01 1.0000000000e-02 0.0000000000e+00
5.4000000000e-01 1.0000000000e-02 0.0000000000e+00
5.5000000000e-01 1.0000000000e-02 0.0000000000e+00
5.6000000000e-01 1.0000000000e-02 0.0000000000e+00
5.7000000000e-01 1.0000000000e-02 0.0000000000e+00
5.8000000000e-01 1.0000000000e-02 0.0000000000e+00
5.9000000000e-01 1.0000000000e-02 0.0000000000e+00
6.0000000000e-01 1.0000000000e-02 0.0000000000e+00
6.1000000000e-01 1.0000000000e-02 0.0000000000e+00
6.2000000000e-01 1.0000000000e-02 0.0000000000e+00
6.3000000000e-01 1.0000000000e-02 0.0000000000e+00
6.4000000000e-01 1.0000000000e-02 0.0000000000e+00
6.5000000000e-01 1.0000000000e-02 0.0000000000e+00
6.6000000000e-01 1.0000000000e-02 0.0000000000e+00
6.7000000000e-01 1.0000000000e-02 0.0000000000e+00
6.8000000000e-01 1.0000000000e-02 0.0000000000e+00
6.9000000000e-01 1.0000000000e-02 0.0000000000e+00
7.0000000000e-01 1.0000000000e-02 0.0000000000e+00
7.1000000000e-01 1.0000000000e-02 0.0000000000e+00
7.2000000000e-01 1.0000000000e-02 0.0000000000e+00
7.3000000000e-01 1.0000000000e-02 0.0000000000e+00
7.4000000000e-01 1.0000000000e-02 0.0000000000e+00
7.5000000000e-01 1.0000000000e-02 0.0000000000e+00
7.6000000000e-01 1.0000000000e-02 0.0000000000e+00
7.7000000000e-01 1.0000000000e-02 0.0000000000e+00
7.8000000000e-01 1.0000000000e-02 0.0000000000e+00
7.9000000000e-01 1.0000000000e-02 0.0000000000e+00
8.0000000000e-01 1.0000000000e-02 0.0000000000e+00
8.1000000000e-01 1.0000000000e-02 0.0000000000e+00
8.2000000000e-01 1.0000000000e-02 0.0000000000e+00
8.3000000000e-01 1.0000000000e-02 0.0000000000e+00
8.4000000000e-01 1.0000000000e-02 0.0000000000e+00
8.5000000000e-01 1.0000000000e-02 0.0000000000e+00
8.6000000000e-01 1.0000000000e-02 0.0000000000e+00
8.7000000000e-01 1.0000000000e-02 0.0000000000e+00
8.8000000000e-01 1.0000000000e-02 0.0000000000e+00
8.9000000000e-01 1.0000000000e-02 0.0000000000e+00
9.0000000000e-01 1.0000000000e-02 0.0000000000e+00
9.1000000000e-01 1.0000000000e-02 0.0000000000e+00
9.2000000000e-01 1.0000000000e-02 0.0000000000e+00
[...]
CELL_DATA 10000

SCALARS massDensity float
LOOKUP_TABLE default
1.2008921416e+00
1.2009071784e+00
1.2009323038e+00
1.2009696379e+00
1.2010187434e+00
1.2010790692e+00
1.2011499592e+00
1.2012306624e+00
1.2013203429e+00
1.2014180941e+00
1.2015229516e+00
1.2016339091e+00
1.2017499332e+00
1.2018699796e+00
1.2019930073e+00
1.2021179944e+00
1.2022439501e+00
1.2023699284e+00
1.2024950379e+00
1.2026184516e+00
1.2027394143e+00
1.2028572486e+00
1.2029713585e+00
1.2030812326e+00
1.2031864439e+00
1.2032866497e+00
1.2033815887e+00
1.2034710787e+00
1.2035550105e+00
1.2036333443e+00
1.2037061019e+00
1.2037733617e+00
1.2038352508e+00
1.2038919385e+00
1.2039436291e+00
1.2039905555e+00
1.2040329720e+00
1.2040711489e+00
1.2041053662e+00
1.2041359091e+00
1.2041630625e+00
1.2041871079e+00
1.2042083195e+00
1.2042269612e+00
1.2042432846e+00
1.2042575272e+00
1.2042699108e+00
1.2042806409e+00
1.2042899060e+00
1.2042978779e+00
1.2043047115e+00
1.2043105453e+00
1.2043155022e+00
1.2043196905e+00
1.2043232043e+00
1.2043261255e+00
1.2043285241e+00
1.2043304600e+00
1.2043319839e+00
1.2043331389e+00
1.2043339614e+00
1.2043344822e+00
1.2043347280e+00
1.2043347219e+00
1.2043344845e+00
1.2043340348e+00
1.2043333908e+00
1.2043325698e+00
1.2043315890e+00
1.2043304658e+00
1.2043292178e+00
1.2043278630e+00
1.2043264196e+00
1.2043249059e+00
1.2043233401e+00
1.2043217402e+00
1.2043201235e+00
1.2043185064e+00
1.2043169042e+00
1.2043153311e+00
1.2043137996e+00
1.2043123206e+00
1.2043109038e+00
1.2043095568e+00
1.2043082862e+00
1.2043070970e+00
1.2043059928e+00
1.2043049764e+00
1.2043040494e+00
1.2043032127e+00
1.2043024671e+00
1.2043018133e+00
1.2043012535e+00
1.2043007929e+00
1.2043004418e+00
1.2043002193e+00
1.2043001567e+00
1.2043003009e+00
1.2043007124e+00
1.2042971043e+00
1.2009071784e+00
1.2009224213e+00
1.2009475488e+00
1.2009847108e+00
1.2010335117e+00
1.2010934284e+00
1.2011638250e+00
1.2012439644e+00
1.2013330234e+00
1.2014301045e+00
1.2015342528e+00
1.2016444697e+00
1.2017597301e+00
1.2018789962e+00
1.2020012346e+00
1.2021254291e+00
1.2022505954e+00
1.2023757924e+00
1.2025001341e+00
1.2026227974e+00
1.2027430312e+00
1.2028601609e+00
1.2029735937e+00
1.2030828195e+00
1.2031874135e+00
1.2032870335e+00
1.2033814193e+00
1.2034703880e+00
1.2035538307e+00
1.2036317063e+00
1.2037040360e+00
1.2037708964e+00
1.2038324134e+00
1.2038887543e+00
1.2039401218e+00
1.2039867466e+00
1.2040288816e+00
1.2040667947e+00
1.2041007649e+00
1.2041310752e+00
1.2041580099e+00
1.2041818491e+00
1.2042028664e+00
1.2042213253e+00
1.2042374774e+00
1.2042515604e+00
1.2042637968e+00
1.2042743930e+00
1.2042835391e+00
1.2042914082e+00
1.2042981570e+00
1.2043039263e+00
1.2043088410e+00
1.2043130115e+00
1.2043165345e+00
1.2043194937e+00
1.2043219613e+00
1.2043239987e+00
1.2043256582e+00
1.2043269837e+00
1.2043280122e+00
1.2043287745e+00
1.2043292965e+00
1.2043296002e+00
1.2043297045e+00
1.2043296260e+00
1.2043293798e+00
1.2043289798e+00
1.2043284395e+00
1.2043277720e+00
1.2043269908e+00
1.2043261093e+00
1.2043251413e+00
1.2043241008e+00
1.2043230020e+00
1.2043218589e+00
1.2043206854e+00
1.2043194952e+00
1.2043183012e+00
1.2043171153e+00
1.2043159490e+00
1.2043148122e+00
1.2043137139e+00
1.2043126619e+00
1.2043116626e+00
1.2043107214e+00
1.2043098424e+00
1.2043090287e+00
1.2043082824e+00
1.2043076050e+00
1.2043069973e+00
1.2043064601e+00
1.2043059942e+00
1.2043056017e+00
1.2043052865e+00
1.2043050547e+00
1.2043049146e+00
1.2043048745e+00
1.2043049349e+00
1.2043005725e+00
1.2009323038e+00
1.2009475488e+00
1.2009726152e+00
1.2010095845e+00
1.2010580750e+00
1.2011175766e+00
1.2011874638e+00
1.2012670101e+00
1.2013554001e+00
1.2014517462e+00
1.2015551008e+00
1.2016644749e+00
1.2017788508e+00
1.2018972001e+00
1.2020184966e+00
1.2021417330e+00
1.2022659321e+00
1.2023901608e+00
1.2025135392e+00
1.2026352516e+00
1.2027545517e+00
1.2028707711e+00
1.2029833207e+00
1.2030916954e+00
1.2031954727e+00
1.2032943139e+00
1.2033879600e+00
1.2034762304e+00
1.2035590163e+00
1.2036362776e+00
1.2037080347e+00
1.2037743642e+00
1.2038353906e+00
1.2038912803e+00
1.2039422342e+00
1.2039884816e+00
1.2040302730e+00
1.2040678753e+00
1.2041015645e+00
1.2041316227e+00
1.2041583314e+00
1.2041819697e+00
1.2042028089e+00
1.2042211114e+00
1.2042371273e+00
1.2042510931e+00
1.2042632301e+00
1.2042737441e+00
1.2042828241e+00
1.2042906427e+00
1.2042973560e+00
1.2043031043e+00
1.2043080119e+00
1.2043121889e+00
1.2043157312e+00
1.2043187221e+00
1.2043212330e+00
1.2043233247e+00
1.2043250483e+00
1.2043264470e+00
1.2043275562e+00
1.2043284057e+00
1.2043290198e+00
1.2043294191e+00
1.2043296208e+00
1.2043296400e+00
1.2043294899e+00
1.2043291831e+00
1.2043287314e+00
1.2043281467e+00
1.2043274411e+00
1.2043266270e+00
1.2043257176e+00
1.2043247261e+00
1.2043236664e+00
1.2043225525e+00
1.2043213986e+00
1.2043202185e+00
1.2043190258e+00
1.2043178334e+00
1.2043166535e+00
1.2043154971e+00
1.2043143741e+00
1.2043132934e+00
1.2043122625e+00
1.2043112874e+00
1.2043103732e+00
1.2043095236e+00
1.2043087410e+00
1.2043080273e+00
1.2043073832e+00
1.2043068090e+00
1.2043063050e+00
1.2043058711e+00
1.2043055077e+00
1.2043052147e+00
1.2043049905e+00
1.2043048282e+00
1.2043047081e+00
1.2042999330e+00
1.2009696379e+00
1.2009847108e+00
1.2010095845e+00
1.2010462078e+00
1.2010942054e+00
1.2011530754e+00
1.2012222031e+00
1.2013008717e+00
1.2013882783e+00
1.2014835453e+00
1.2015857383e+00
1.2016938788e+00
1.2018069625e+00
1.2019239718e+00
1.2020438939e+00
1.2021657317e+00
1.2022885207e+00
1.2024113371e+00
1.2025333126e+00
1.2026536393e+00
1.2027715811e+00
1.2028864758e+00
1.2029977423e+00
1.2031048802e+00
1.2032074728e+00
1.2033051844e+00
1.2033977599e+00
1.2034850197e+00
1.2035668574e+00
1.2036432323e+00
1.2037141654e+00
1.2037797317e+00
1.2038400550e+00
1.2038952990e+00
1.2039456632e+00
1.2039913735e+00
1.2040326785e+00
1.2040698413e+00
1.2041031357e+00
1.2041328402e+00
1.2041592340e+00
1.2041825927e+00
1.2042031855e+00
1.2042212720e+00
1.2042371002e+00
1.2042509042e+00
1.2042629039e+00
1.2042733028e+00
1.2042822889e+00
1.2042900332e+00
1.2042966909e+00
1.2043024009e+00
1.2043072868e+00
1.2043114576e+00
1.2043150085e+00
1.2043180217e+00
1.2043205678e+00
1.2043227064e+00
1.2043244877e+00
1.2043259535e+00
1.2043271380e+00
1.2043280695e+00
1.2043287710e+00
1.2043292613e+00
1.2043295560e+00
1.2043296686e+00
1.2043296108e+00
1.2043293933e+00
1.2043290266e+00
1.2043285212e+00
1.2043278881e+00
1.2043271386e+00
1.2043262849e+00
1.2043253399e+00
1.2043243171e+00
1.2043232304e+00
1.2043220941e+00
1.2043209226e+00
1.2043197298e+00
1.2043185294e+00
1.2043173345e+00
1.2043161570e+00
1.2043150079e+00
1.2043138971e+00
1.2043128327e+00
1.2043118220e+00
1.2043108705e+00
1.2043099826e+00
1.2043091613e+00
1.2043084084e+00
1.2043077247e+00
1.2043071102e+00
1.2043065641e+00
1.2043060848e+00
1.2043056699e+00
1.2043053155e+00
1.2043050145e+00
1.2043047541e+00
1.2043045107e+00
1.2042994685e+00
1.2010187434e+00
1.2010335117e+00
1.2010580750e+00
1.2010942054e+00
1.2011415305e+00
1.2011995570e+00
1.2012676796e+00
1.2013451945e+00
1.2014313107e+00
1.2015251660e+00
1.2016258395e+00
1.2017323694e+00
1.2018437652e+00
1.2019590268e+00
1.2020771550e+00
1.2021971697e+00
1.2023181192e+00
1.2024390958e+00
1.2025592422e+00
1.2026777648e+00
1.2027939368e+00
1.2029071077e+00
1.2030167038e+00
1.2031222334e+00
1.2032232850e+00
1.2033195291e+00
1.2034107134e+00
1.2034966621e+00
1.2035772691e+00
1.2036524954e+00
1.2037223609e+00
1.2037869402e+00
1.2038463542e+00
1.2039007653e+00
1.2039503688e+00
1.2039953883e+00
1.2040360678e+00
1.2040726673e+00
1.2041054561e+00
1.2041347091e+00
1.2041607012e+00
1.2041837045e+00
1.2042039845e+00
1.2042217973e+00
1.2042373875e+00
1.2042509867e+00
1.2042628117e+00
1.2042730639e+00
1.2042819288e+00
1.2042895758e+00
1.2042961580e+00
1.2043018129e+00
1.2043066627e+00
1.2043108152e+00
1.2043143640e+00
1.2043173904e+00
1.2043199636e+00
1.2043221421e+00
1.2043239747e+00
1.2043255017e+00
1.2043267562e+00
1.2043277648e+00
1.2043285488e+00
1.2043291257e+00
1.2043295092e+00
1.2043297111e+00
1.2043297416e+00
1.2043296097e+00
1.2043293246e+00
1.2043288952e+00
1.2043283314e+00
1.2043276435e+00
1.2043268429e+00
1.2043259420e+00
1.2043249538e+00
1.2043238923e+00
1.2043227718e+00
1.2043216070e+00
1.2043204126e+00
1.2043192028e+00
1.2043179916e+00
1.2043167917e+00
1.2043156152e+00
1.2043144727e+00
1.2043133735e+00
1.2043123256e+00
1.2043113352e+00
1.2043104072e+00
1.2043095452e+00
1.2043087511e+00
1.2043080258e+00
1.2043073688e+00
1.2043067788e+00
1.2043062530e+00
1.2043057873e+00
1.2043053757e+00
1.2043050088e+00
1.2043046727e+00
1.2043043459e+00
1.2042991276e+00
1.2010790692e+00
1.2010934284e+00
1.2011175766e+00
1.2011530754e+00
1.2011995570e+00
1.2012565356e+00
1.2013234179e+00
1.2013995127e+00
1.2014840455e+00
1.2015761692e+00
1.2016749822e+00
1.2017795392e+00
1.2018888706e+00
1.2020019931e+00
1.2021179284e+00
1.2022357129e+00
1.2023544149e+00
1.2024731416e+00
1.2025910540e+00
1.2027073714e+00
1.2028213826e+00
1.2029324474e+00
1.2030400046e+00
1.2031435703e+00
1.2032427420e+00
1.2033371951e+00
1.2034266832e+00
1.2035110327e+00
1.2035901405e+00
1.2036639672e+00
1.2037325332e+00
1.2037959109e+00
1.2038542196e+00
1.2039076179e+00
1.2039562982e+00
1.2040004791e+00
1.2040404009e+00
1.2040763181e+00
1.2041084957e+00
1.2041372031e+00
1.2041627108e+00
1.2041852859e+00
1.2042051893e+00
1.2042226729e+00
1.2042379773e+00
1.2042513300e+00
1.2042629447e+00
1.2042730195e+00
1.2042817371e+00
1.2042892643e+00
1.2042957521e+00
1.2043013358e+00
1.2043061357e+00
1.2043102579e+00
1.2043137945e+00
1.2043168252e+00
1.2043194177e+00
1.2043216291e+00
1.2043235068e+00
1.2043250896e+00
1.2043264088e+00
1.2043274896e+00
1.2043283518e+00
1.2043290108e+00
1.2043294790e+00
1.2043297663e+00
1.2043298813e+00
1.2043298315e+00
1.2043296244e+00
1.2043292678e+00
1.2043287702e+00
1.2043281411e+00
1.2043273910e+00
1.2043265316e+00
1.2043255759e+00
1.2043245375e+00
1.2043234310e+00
1.2043222713e+00
1.2043210737e+00
1.2043198532e+00
1.2043186243e+00
1.2043174008e+00
1.2043161957e+00
1.2043150204e+00
1.2043138851e+00
1.2043127987e+00
1.2043117680e+00
1.2043107987e+00
1.2043098946e+00
1.2043090580e+00
1.2043082899e+00
1.2043075896e+00
1.2043069553e+00
1.2043063837e+00
1.2043058699e+00
1.2043054068e+00
1.2043049849e+00
1.2043045909e+00
1.2043042071e+00
1.2042988686e+00
1.2011499592e+00
1.2011638250e+00
1.2011874638e+00
1.2012222031e+00
1.2012676796e+00
1.2013234179e+00
1.2013888364e+00
1.2014632603e+00
1.2015459310e+00
1.2016360223e+00
1.2017326510e+00
1.2018348952e+00
1.2019418049e+00
1.2020524210e+00
1.2021657853e+00
1.2022809579e+00
1.2023970256e+00
1.2025131181e+00
1.2026284130e+00
1.2027421492e+00
1.2028536293e+00
1.2029622295e+00
1.2030673993e+00
1.2031686674e+00
1.2032656386e+00
1.2033579971e+00
1.2034455005e+00
1.2035279804e+00
1.2036053347e+00
1.2036775261e+00
1.2037445732e+00
1.2038065477e+00
1.2038635655e+00
1.2039157821e+00
1.2039633849e+00
1.2040065886e+00
1.2040456271e+00
1.2040807501e+00
1.2041122163e+00
1.2041402896e+00
1.2041652344e+00
1.2041873125e+00
1.2042067790e+00
1.2042238809e+00
1.2042388538e+00
1.2042519208e+00
1.2042632912e+00
1.2042731596e+00
1.2042817051e+00
1.2042890914e+00
1.2042954665e+00
1.2043009636e+00
1.2043057004e+00
1.2043097810e+00
1.2043132957e+00
1.2043163223e+00
1.2043189267e+00
1.2043211645e+00
1.2043230813e+00
1.2043247144e+00
1.2043260935e+00
1.2043272419e+00
1.2043281777e+00
1.2043289148e+00
1.2043294636e+00
1.2043298326e+00
1.2043300284e+00
1.2043300572e+00
1.2043299248e+00
1.2043296378e+00
1.2043292035e+00
1.2043286303e+00
1.2043279281e+00
1.2043271079e+00
1.2043261824e+00
1.2043251652e+00
1.2043240709e+00
1.2043229148e+00
1.2043217126e+00
1.2043204799e+00
1.2043192322e+00
1.2043179840e+00
1.2043167491e+00
1.2043155400e+00
1.2043143677e+00
1.2043132418e+00
1.2043121700e+00
1.2043111584e+00
1.2043102114e+00
1.2043093316e+00
1.2043085202e+00
1.2043077766e+00
1.2043070987e+00
1.2043064830e+00
1.2043059243e+00
1.2043054157e+00
1.2043049479e+00
1.2043045093e+00
1.2043040858e+00
1.2042986610e+00
1.2012306624e+00
1.2012439644e+00
1.2012670101e+00
1.2013008717e+00
1.2013451945e+00
1.2013995127e+00
1.2014632603e+00
1.2015357782e+00
1.2016163289e+00
1.2017041058e+00
1.2017982507e+00
1.2018978635e+00
1.2020020212e+00
1.2021097875e+00
1.2022202312e+00
1.2023324347e+00
1.2024455111e+00
1.2025586101e+00
1.2026709331e+00
1.2027817366e+00
1.2028903436e+00
1.2029961444e+00
1.2030986047e+00
1.2031972634e+00
1.2032917378e+00
1.2033817181e+00
1.2034669701e+00
1.2035473279e+00
1.2036226937e+00
1.2036930294e+00
1.2037583545e+00
1.2038187376e+00
1.2038742924e+00
1.2039251694e+00
1.2039715521e+00
1.2040136486e+00
1.2040516875e+00
1.2040859116e+00
1.2041165734e+00
1.2041439297e+00
1.2041682387e+00
1.2041897552e+00
1.2042087287e+00
1.2042253998e+00
1.2042399986e+00
1.2042527430e+00
1.2042638375e+00
1.2042734722e+00
1.2042818223e+00
1.2042890477e+00
1.2042952934e+00
1.2043006892e+00
1.2043053506e+00
1.2043093790e+00
1.2043128626e+00
1.2043158771e+00
1.2043184865e+00
1.2043207445e+00
1.2043226949e+00
1.2043243732e+00
1.2043258074e+00
1.2043270190e+00
1.2043280243e+00
1.2043288355e+00
1.2043294613e+00
1.2043299082e+00
1.2043301814e+00
1.2043302853e+00
1.2043302244e+00
1.2043300040e+00
1.2043296300e+00
1.2043291101e+00
1.2043284532e+00
1.2043276699e+00
1.2043267724e+00
1.2043257744e+00
1.2043246905e+00
1.2043235364e+00
1.2043223282e+00
1.2043210823e+00
1.2043198146e+00
1.2043185407e+00
1.2043172752e+00
1.2043160315e+00
1.2043148214e+00
1.2043136553e+00
1.2043125417e+00
1.2043114874e+00
1.2043104971e+00
1.2043095740e+00
1.2043087194e+00
1.2043079330e+00
1.2043072127e+00
1.2043065551e+00
1.2043059551e+00
1.2043054060e+00
1.2043048996e+00
1.2043044261e+00
1.2043039739e+00
1.2042984833e+00
1.2013203429e+00
1.2013330234e+00
1.2013554001e+00
1.2013882783e+00
1.2014313107e+00
1.2014840455e+00
1.2015459310e+00
1.2016163289e+00
1.2016945213e+00
1.2017797274e+00
1.2018711118e+00
1.2019678036e+00
1.2020689047e+00
1.2021735087e+00
1.2022807097e+00
1.2023896197e+00
1.2024993755e+00
1.2026091546e+00
1.2027181794e+00
1.2028257310e+00
1.2029311499e+00
1.2030338468e+00
1.2031333011e+00
1.2032290673e+00
1.2033207719e+00
1.2034081163e+00
1.2034908713e+00
1.2035688774e+00
1.2036420380e+00
1.2037103176e+00
1.2037737337e+00
1.2038323539e+00
1.2038862872e+00
1.2039356809e+00
1.2039807118e+00
1.2040215826e+00
1.2040585147e+00
1.2040917442e+00
1.2041215157e+00
1.2041480792e+00
1.2041716850e+00
1.2041925812e+00
1.2042110097e+00
1.2042272048e+00
1.2042413903e+00
1.2042537782e+00
1.2042645676e+00
1.2042739436e+00
1.2042820767e+00
1.2042891230e+00
1.2042952234e+00
1.2043005048e+00
1.2043050793e+00
1.2043090457e+00
1.2043124896e+00
1.2043154846e+00
1.2043180925e+00
1.2043203649e+00
1.2043223437e+00
1.2043240626e+00
1.2043255474e+00
1.2043268181e+00
1.2043278891e+00
1.2043287705e+00
1.2043294696e+00
1.2043299910e+00
1.2043303381e+00
1.2043305140e+00
1.2043305216e+00
1.2043303647e+00
1.2043300482e+00
1.2043295789e+00
1.2043289648e+00
1.2043282161e+00
1.2043273447e+00
1.2043263640e+00
1.2043252889e+00
1.2043241353e+00
1.2043229198e+00
1.2043216594e+00
1.2043203708e+00
1.2043190704e+00
1.2043177736e+00
1.2043164946e+00
1.2043152463e+00
1.2043140397e+00
1.2043128840e+00
1.2043117867e+00
1.2043107532e+00
1.2043097870e+00
1.2043088898e+00
1.2043080614e+00
1.2043073002e+00
1.2043066030e+00
1.2043059649e+00
1.2043053799e+00
1.2043048406e+00
1.2043043387e+00
1.2043038652e+00
1.2042983204e+00
1.2014180941e+00
1.2014301045e+00
1.2014517462e+00
1.2014835453e+00
1.2015251660e+00
1.2015761692e+00
1.2016360223e+00
1.2017041058e+00
1.2017797274e+00
1.2018621295e+00
1.2019505069e+00
1.2020440148e+00
1.2021417874e+00
1.2022429460e+00
1.2023466170e+00
1.2024519393e+00
1.2025580811e+00
1.2026642444e+00
1.2027696802e+00
1.2028736906e+00
1.2029756406e+00
1.2030749581e+00
1.2031711419e+00
1.2032637591e+00
1.2033524506e+00
1.2034369257e+00
1.2035169643e+00
1.2035924108e+00
1.2036631729e+00
1.2037292149e+00
1.2037905548e+00
1.2038472566e+00
1.2038994269e+00
1.2039472067e+00
1.2039907680e+00
1.2040303058e+00
1.2040660350e+00
1.2040981831e+00
1.2041269874e+00
1.2041526893e+00
1.2041755314e+00
1.2041957535e+00
1.2042135904e+00
1.2042292686e+00
1.2042430054e+00
1.2042550061e+00
1.2042654639e+00
1.2042745584e+00
1.2042824552e+00
1.2042893056e+00
1.2042952467e+00
1.2043004013e+00
1.2043048785e+00
1.2043087740e+00
1.2043121706e+00
1.2043151394e+00
1.2043177399e+00
1.2043200214e+00
1.2043220238e+00
1.2043237787e+00
1.2043253102e+00
1.2043266361e+00
1.2043277690e+00
1.2043287172e+00
1.2043294861e+00
1.2043300787e+00
1.2043304966e+00
1.2043307413e+00
1.2043308143e+00
1.2043307180e+00
1.2043304564e+00
1.2043300351e+00
1.2043294615e+00
1.2043287452e+00
1.2043278978e+00
1.2043269326e+00
1.2043258647e+00
1.2043247102e+00
1.2043234862e+00
1.2043222103e+00
1.2043209000e+00
1.2043195724e+00
1.2043182438e+00
1.2043169292e+00
1.2043156424e+00
1.2043143951e+00
1.2043131974e+00
1.2043120573e+00
1.2043109809e+00
1.2043099721e+00
1.2043090330e+00
1.2043081640e+00
1.2043073636e+00
1.2043066289e+00
1.2043059556e+00
1.2043053383e+00
1.2043047706e+00
1.2043042452e+00
1.2043037549e+00
1.2042981623e+00
1.2015229516e+00
1.2015342528e+00
1.2015551008e+00
1.2015857383e+00
1.2016258395e+00
1.2016749822e+00
1.2017326510e+00
1.2017982507e+00
1.2018711118e+00
1.2019505069e+00
1.2020356575e+00
1.2021257524e+00
1.2022199548e+00
1.2023174209e+00
1.2024173064e+00
1.2025187848e+00
1.2026210518e+00
1.2027233415e+00
1.2028249298e+00
1.2029251469e+00
1.2030233788e+00
1.2031190765e+00
1.2032117550e+00
1.2033009996e+00
1.2033864619e+00
1.2034678639e+00
1.2035449917e+00
1.2036176968e+00
1.2036858888e+00
1.2037495345e+00
1.2038086498e+00
1.2038632974e+00
1.2039135786e+00
1.2039596304e+00
1.2040016173e+00
1.2040397280e+00
1.2040741686e+00
1.2041051592e+00
1.2041329277e+00
1.2041577075e+00
1.2041797320e+00
1.2041992330e+00
1.2042164366e+00
1.2042315619e+00
1.2042448184e+00
1.2042564047e+00
1.2042665074e+00
1.2042753003e+00
1.2042829433e+00
1.2042895831e+00
1.2042953521e+00
1.2043003693e+00
1.2043047399e+00
1.2043085565e+00
1.2043118990e+00
1.2043148355e+00
1.2043174232e+00
1.2043197091e+00
1.2043217308e+00
1.2043235178e+00
1.2043250921e+00
1.2043264696e+00
1.2043276610e+00
1.2043286728e+00
1.2043295083e+00
1.2043301688e+00
1.2043306544e+00
1.2043309649e+00
1.2043311004e+00
1.2043310621e+00
1.2043308527e+00
1.2043304769e+00
1.2043299414e+00
1.2043292554e+00
1.2043284301e+00
1.2043274787e+00
1.2043264165e+00
1.2043252598e+00
1.2043240263e+00
1.2043227340e+00
1.2043214013e+00
1.2043200460e+00
1.2043186852e+00
1.2043173349e+00
1.2043160095e+00
1.2043147217e+00
1.2043134822e+00
1.2043122998e+00
1.2043111811e+00
1.2043101305e+00
1.2043091508e+00
1.2043082424e+00
1.2043074046e+00
1.2043066346e+00
1.2043059288e+00
1.2043052823e+00
1.2043046893e+00
1.2043041439e+00
1.2043036399e+00
1.2042980028e+00
1.2016339091e+00
1.2016444697e+00
1.2016644749e+00
1.2016938788e+00
1.2017323694e+00
1.2017795392e+00
1.2018348952e+00
1.2018978635e+00
1.2019678036e+00
1.2020440148e+00
1.2021257524e+00
1.2022122350e+00
1.2023026622e+00
1.2023962213e+00
1.2024921049e+00
1.2025895168e+00
1.2026876879e+00
1.2027858805e+00
1.2028834021e+00
1.2029796075e+00
1.2030739097e+00
1.2031657794e+00
1.2032547535e+00
1.2033404314e+00
1.2034224812e+00
1.2035006335e+00
1.2035746852e+00
1.2036444916e+00
1.2037099675e+00
1.2037710793e+00
1.2038278435e+00
1.2038803190e+00
1.2039286039e+00
1.2039728285e+00
1.2040131516e+00
1.2040497533e+00
1.2040828323e+00
1.2041125991e+00
1.2041392733e+00
1.2041630783e+00
1.2041842391e+00
1.2042029778e+00
1.2042195124e+00
1.2042340534e+00
1.2042468024e+00
1.2042579507e+00
1.2042676781e+00
1.2042761517e+00
1.2042835262e+00
1.2042899425e+00
1.2042955285e+00
1.2043003988e+00
1.2043046549e+00
1.2043083856e+00
1.2043116679e+00
1.2043145669e+00
1.2043171371e+00
1.2043194231e+00
1.2043214603e+00
1.2043232757e+00
1.2043248895e+00
1.2043263153e+00
1.2043275620e+00
1.2043286341e+00
1.2043295332e+00
1.2043302587e+00
1.2043308091e+00
1.2043311826e+00
1.2043313778e+00
1.2043313947e+00
1.2043312350e+00
1.2043309023e+00