# vtk DataFile Version 2.0
Blank
ASCII
DATASET STRUCTURED_GRID
DIMENSIONS 101 101 2
POINTS 20402 float
0.0000000000e+00 0.0000000000e+00 0.0000000000e+00
1.0000000000e-02 0.0000000000e+00 0.0000000000e+00
2.0000000000e-02 0.0000000000e+00 0.0000000000e+00
3.0000000000e-02 0.0000000000e+00 0.0000000000e+00
4.0000000000e-02 0.0000000000e+00 0.0000000000e+00
5.0000000000e-02 0.0000000000e+00 0.0000000000e+00
6.0000000000e-02 0.0000000000e+00 0.0000000000e+00
7.0000000000e-02 0.0000000000e+00 0.0000000000e+00
8.0000000000e-02 0.0000000000e+00 0.0000000000e+00
9.0000000000e-02 0.0000000000e+00 0.0000000000e+00
1.0000000000e-01 0.0000000000e+00 0.0000000000e+00
1.1000000000e-01 0.0000000000e+00 0.0000000000e+00
1.2000000000e-01 0.0000000000e+00 0.0000000000e+00
1.3000000000e-01 0.0000000000e+00 0.0000000000e+00
1.4000000000e-01 0.0000000000e+00 0.0000000000e+00
1.5000000000e-01 0.0000000000e+00 0.0000000000e+00
1.6000000000e-01 0.0000000000e+00 0.0000000000e+00
1.7000000000e-01 0.0000000000e+00 0.0000000000e+00
1.8000000000e-01 0.0000000000e+00 0.0000000000e+00
1.9000000000e-01 0.0000000000e+00 0.0000000000e+00
2.0000000000e-01 0.0000000000e+00 0.0000000000e+00
2.1000000000e-01 0.0000000000e+00 0.0000000000e+00
2.2000000000e-01 0.0000000000e+00 0.0000000000e+00
2.3000000000e-01 0.0000000000e+00 0.0000000000e+00
2.4000000000e-01 0.0000000000e+00 0.0000000000e+00
2.5000000000e-01 0.0000000000e+00 0.0000000000e+00
2.6000000000e-01 0.0000000000e+00 0.0000000000e+00
2.7000000000e-01 0.0000000000e+00 0.0000000000e+00
2.8000000000e-01 0.0000000000e+00 0.0000000000e+00
2.9000000000e-01 0.0000000000e+00 0.0000000000e+00
3.0000000000e-01 0.0000000000e+00 0.0000000000e+00
3.1000000000e-01 0.0000000000e+00 0.0000000000e+00
3.2000000000e-01 0.0000000000e+00 0.0000000000e+00
3.3000000000e-01 0.0000000000e+00 0.0000000000e+00
3.4000000000e-01 0.0000000000e+00 0.0000000000e+00
3.5000000000e-01 0.0000000000e+00 0.0000000000e+00
3.6000000000e-01 0.0000000000e+00 0.0000000000e+00
3.7000000000e-01 0.0000000000e+00 0.0000000000e+00
3.8000000000e-01 0.0000000000e+00 0.0000000000e+00
3.9000000000e-01 0.0000000000e+00 0.0000000000e+00
4.0000000000e-01 0.0000000000e+00 0.0000000000e+00
4.1000000000e-01 0.0000000000e+00 0.0000000000e+00
4.2000000000e-01 0.0000000000e+00 0.0000000000e+00
4.3000000000e-01 0.0000000000e+00 0.0000000000e+00
4.4000000000e-01 0.0000000000e+00 0.0000000000e+00
4.5000000000e-01 0.0000000000e+00 0.0000000000e+00
4.6000000000e-01 0.0000000000e+00 0.0000000000e+00
4.7000000000e-01 0.0000000000e+00 0.0000000000e+00
4.8000000000e-01 0.0000000000e+00 0.0000000000e+00
4.9000000000e-01 0.0000000000e+00 0.0000000000e+00
5.0000000000e-01 0.0000000000e+00 0.0000000000e+00
5.1000000000e-01 0.0000000000e+00 0.0000000000e+00
5.2000000000e-01 0.0000000000e+00 0.0000000000e+00
5.3000000000e-01 0.0000000000e+00 0.0000000000e+00
5.4000000000e-01 0.0000000000e+00 0.0000000000e+00
5.5000000000e-01 0.0000000000e+00 0.0000000000e+00
5.6000000000e-01 0.0000000000e+00 0.0000000000e+00
5.7000000000e-01 0.0000000000e+00 0.0000000000e+00
5.8000000000e-01 0.0000000000e+00 0.0000000000e+00
5.9000000000e-01 0.0000000000e+00 0.0000000000e+00
6.0000000000e-01 0.0000000000e+00 0.0000000000e+00
6.1000000000e-01 0.0000000000e+00 0.0000000000e+00
6.2000000000e-01 0.0000000000e+00 0.0000000000e+00
6.3000000000e-01 0.0000000000e+00 0.0000000000e+00
6.4000000000e-01 0.0000000000e+00 0.0000000000e+00
6.5000000000e-01 0.0000000000e+00 0.0000000000e+00
6.6000000000e-01 0.0000000000e+00 0.0000000000e+00
6.7000000000e-01 0.0000000000e+00 0.0000000000e+00
6.8000000000e-01 0.0000000000e+00 0.0000000000e+00
6.9000000000e-01 0.0000000000e+00 0.0000000000e+00
7.0000000000e-01 0.0000000000e+00 0.0000000000e+00
7.1000000000e-01 0.0000000000e+00 0.0000000000e+00
7.2000000000e-01 0.0000000000e+00 0.0000000000e+00
7.3000000000e-01 0.0000000000e+00 0.0000000000e+00
7.4000000000e-01 0.0000000000e+00 0.0000000000e+00
7.5000000000e-01 0.0000000000e+00 0.0000000000e+00
7.6000000000e-01 0.0000000000e+00 0.0000000000e+00
7.7000000000e-01 0.0000000000e+00 0.0000000000e+00
7.8000000000e-01 0.0000000000e+00 0.0000000000e+00
7.9000000000e-01 0.0000000000e+00 0.0000000000e+00
8.0000000000e-01 0.0000000000e+00 0.0000000000e+00
8.1000000000e-01 0.0000000000e+00 0.0000000000e+00
8.2000000000e-01 0.0000000000e+00 0.0000000000e+00
8.3000000000e-01 0.0000000000e+00 0.0000000000e+00
8.4000000000e-01 0.0000000000e+00 0.0000000000e+00
8.5000000000e-01 0.0000000000e+00 0.0000000000e+00
8.6000000000e-01 0.0000000000e+00 0.0000000000e+00
8.7000000000e-01 0.0000000000e+00 0.0000000000e+00
8.8000000000e-01 0.0000000000e+00 0.0000000000e+00
8.9000000000e-01 0.0000000000e+00 0.0000000000e+00
9.0000000000e-01 0.0000000000e+00 0.0000000000e+00
9.1000000000e-01 0.0000000000e+00 0.0000000000e+00
9.2000000000e-01 0.0000000000e+00 0.0000000000e+00
9.3000000000e-01 0.0000000000e+00 0.0000000000e+00
9.4000000000e-01 0.0000000000e+00 0.0000000000e+00
9.5000000000e-01 0.0000000000e+00 0.0000000000e+00
9.6000000000e-01 0.0000000000e+00 0.0000000000e+00
9.7000000000e-01 0.0000000000e+00 0.0000000000e+00
9.8000000000e-01 0.0000000000e+00 0.0000000000e+00
9.9000000000e-01 0.0000000000e+00 0.0000000000e+00
1.0000000000e+00 0.0000000000e+00 0.0000000000e+00
0.0000000000e+00 1.0000000000e-02 0.0000000000e+00
1.0000000000e-02 1.0000000000e-02 0.0000000000e+00
2.0000000000e-02 1.0000000000e-02 0.0000000000e+00
3.0000000000e-02 1.0000000000e-02 0.0000000000e+00
4.0000000000e-02 1.0000000000e-02 0.0000000000e+00
5.0000000000e-02 1.0000000000e-02 0.0000000000e+00
6.0000000000e-02 1.0000000000e-02 0.0000000000e+00
7.0000000000e-02 1.0000000000e-02 0.0000000000e+00
8.0000000000e-02 1.0000000000e-02 0.0000000000e+00
9.0000000000e-02 1.0000000000e-02 0.0000000000e+00
1.0000000000e-01 1.0000000000e-02 0.0000000000e+00
1.1000000000e-01 1.0000000000e-02 0.0000000000e+00
1.2000000000e-01 1.0000000000e-02 0.0000000000e+00
1.3000000000e-01 1.0000000000e-02 0.0000000000e+00
1.4000000000e-01 1.0000000000e-02 0.0000000000e+00
1.5000000000e-01 1.0000000000e-02 0.0000000000e+00
1.6000000000e-01 1.0000000000e-02 0.0000000000e+00
1.7000000000e-01 1.0000000000e-02 0.0000000000e+00
1.8000000000e-01 1.0000000000e-02 0.0000000000e+00
1.9000000000e-01 1.0000000000e-02 0.0000000000e+00
2.0000000000e-01 1.0000000000e-02 0.0000000000e+00
2.1000000000e-01 1.0000000000e-02 0.0000000000e+00
2.2000000000e-01 1.0000000000e-02 0.0000000000e+00
2.3000000000e-01 1.0000000000e-02 0.0000000000e+00
2.4000000000e-01 1.0000000000e-02 0.0000000000e+00
2.5000000000e-01 1.0000000000e-02 0.0000000000e+00
2.6000000000e-01 1.0000000000e-02 0.0000000000e+00
2.7000000000e-01 1.0000000000e-02 0.0000000000e+00
2.8000000000e-01 1.0000000000e-02 0.0000000000e+00
2.9000000000e-01 1.0000000000e-02 0.0000000000e+00
3.0000000000e-01 1.0000000000e-02 0.0000000000e+00
3.1000000000e-01 1.0000000000e-02 0.0000000000e+00
3.2000000000e-01 1.0000000000e-02 0.0000000000e+00
3.3000000000e-01 1.0000000000e-02 0.0000000000e+00
3.4000000000e-01 1.0000000000e-02 0.0000000000e+00
3.5000000000e-01 1.0000000000e-02 0.0000000000e+00
3.6000000000e-01 1.0000000000e-02 0.0000000000e+00
3.7000000000e-01 1.0000000000e-02 0.0000000000e+00
3.8000000000e-01 1.0000000000e-02 0.0000000000e+00
3.9000000000e-01 1.0000000000e-02 0.0000000000e+00
4.0000000000e-01 1.0000000000e-02 0.0000000000e+00
4.1000000000e-01 1.0000000000e-02 0.0000000000e+00
4.2000000000e-01 1.0000000000e-02 0.0000000000e+00
4.3000000000e-01 1.0000000000e-02 0.0000000000e+00
4.4000000000e-01 1.0000000000e-02 0.0000000000e+00
4.5000000000e-01 1.0000000000e-02 0.0000000000e+00
4.6000000000e-01 1.0000000000e-02 0.0000000000e+00
4.7000000000e-01 1.0000000000e-02 0.0000000000e+00
4.8000000000e-01 1.0000000000e-02 0.0000000000e+00
4.9000000000e-01 1.0000000000e-02 0.0000000000e+00
5.0000000000e-01 1.0000000000e-02 0.0000000000e+00
5.1000000000e-01 1.0000000000e-02 0.0000000000e+00
5.2000000000e-01 1.0000000000e-02 0.0000000000e+00
5.3000000000e-01 1.0000000000e-02 0.0000000000e+00
5.4000000000e-01 1.0000000000e-02 0.0000000000e+00
5.5000000000e-01 1.0000000000e-02 0.0000000000e+00
5.6000000000e-01 1.0000000000e-02 0.0000000000e+00
5.7000000000e-01 1.0000000000e-02 0.0000000000e+00
5.8000000000e-01 1.0000000000e-02 0.0000000000e+00
5.9000000000e-01 1.0000000000e-02 0.0000000000e+00
6.0000000000e-01 1.0000000000e-02 0.0000000000e+00
6.1000000000e-01 1.0000000000e-02 0.0000000000e+00
6.2000000000e-01 1.0000000000e-02 0.0000000000e+00
6.3000000000e-01 1.0000000000e-02 0.0000000000e+00
6.4000000000e-01 1.0000000000e-02 0.0000000000e+00
6.5000000000e-01 1.0000000000e-02 0.0000000000e+00
6.6000000000e-01 1.0000000000e-02 0.0000000000e+00
6.7000000000e-01 1.0000000000e-02 0.0000000000e+00
6.8000000000e-01 1.0000000000e-02 0.0000000000e+00
6.9000000000e-01 1.0000000000e-02 0.0000000000e+00
7.0000000000e-01 1.0000000000e-02 0.0000000000e+00
7.1000000000e-01 1.0000000000e-02 0.0000000000e+00
7.2000000000e-01 1.0000000000e-02 0.0000000000e+00
7.3000000000e-01 1.0000000000e-02 0.0000000000e+00
7.4000000000e-01 1.0000000000e-02 0.0000000000e+00
7.5000000000e-01 1.0000000000e-02 0.0000000000e+00
7.6000000000e-01 1.0000000000e-02 0.0000000000e+00
7.7000000000e-01 1.0000000000e-02 0.0000000000e+00
7.8000000000e-01 1.0000000000e-02 0.0000000000e+00
7.9000000000e-01 1.0000000000e-02 0.0000000000e+00
8.0000000000e-01 1.0000000000e-02 0.0000000000e+00
8.1000000000e-01 1.0000000000e-02 0.0000000000e+00
8.2000000000e-01 1.0000000000e-02 0.0000000000e+00
8.3000000000e-01 1.0000000000e-02 0.0000000000e+00
8.4000000000e-01 1.0000000000e-02 0.0000000000e+00
8.5000000000e-01 1.0000000000e-02 0.0000000000e+00
8.6000000000e-01 1.0000000000e-02 0.0000000000e+00
8.7000000000e-01 1.0000000000e-02 0.0000000000e+00
8.8000000000e-01 1.0000000000e-02 0.0000000000e+00
8.9000000000e-01 1.0000000000e-02 0.0000000000e+00
9.0000000000e-01 1.0000000000e-02 0.0000000000e+00
9.1000000000e-01 1.0000000000e-02 0.0000000000e+00
9.2000000000e-01 1.0000000000e-02 0.0000000000e+00
[...]
CELL_DATA 10000

SCALARS massDensity float
LOOKUP_TABLE default
1.1963497649e+00
1.1964347415e+00
1.1965591478e+00
1.1967453340e+00
1.1969883845e+00
1.1972822064e+00
1.1976197555e+00
1.1979933055e+00
1.1983946929e+00
1.1988156108e+00
1.1992478532e+00
1.1996835841e+00
1.2001155328e+00
1.2005371926e+00
1.2009429343e+00
1.2013281115e+00
1.2016890816e+00
1.2020232196e+00
1.2023288576e+00
1.2026052262e+00
1.2028523398e+00
1.2030708947e+00
1.2032621308e+00
1.2034277183e+00
1.2035696230e+00
1.2036900056e+00
1.2037911104e+00
1.2038751912e+00
1.2039444322e+00
1.2040009053e+00
1.2040465233e+00
1.2040830247e+00
1.2041119539e+00
1.2041346662e+00
1.2041523269e+00
1.2041659279e+00
1.2041762973e+00
1.2041841211e+00
1.2041899568e+00
1.2041942550e+00
1.2041973723e+00
1.2041995909e+00
1.2042011283e+00
1.2042021535e+00
1.2042027933e+00
1.2042031449e+00
1.2042032794e+00
1.2042032508e+00
1.2042030980e+00
1.2042028505e+00
1.2042025300e+00
1.2042021536e+00
1.2042017352e+00
1.2042012878e+00
1.2042008241e+00
1.2042003592e+00
1.2041999110e+00
1.2041995033e+00
1.2041991663e+00
1.2041989401e+00
1.2041988763e+00
1.2041990401e+00
1.2041995132e+00
1.2042003946e+00
1.2042018021e+00
1.2042038712e+00
1.2042067538e+00
1.2042106131e+00
1.2042156182e+00
1.2042219341e+00
1.2042297125e+00
1.2042390772e+00
1.2042501123e+00
1.2042628471e+00
1.2042772463e+00
1.2042931992e+00
1.2043105164e+00
1.2043289298e+00
1.2043481006e+00
1.2043676310e+00
1.2043870848e+00
1.2044060091e+00
1.2044239621e+00
1.2044405386e+00
1.2044553962e+00
1.2044682746e+00
1.2044790120e+00
1.2044875489e+00
1.2044939293e+00
1.2044982852e+00
1.2045008215e+00
1.2045017859e+00
1.2045014433e+00
1.2045000424e+00
1.2044977931e+00
1.2044948427e+00
1.2044912678e+00
1.2044870683e+00
1.2044821904e+00
1.2045242118e+00
1.1964347415e+00
1.1965240483e+00
1.1966498964e+00
1.1968361159e+00
1.1970781624e+00
1.1973701932e+00
1.1977053685e+00
1.1980760950e+00
1.1984743416e+00
1.1988918861e+00
1.1993206233e+00
1.1997527781e+00
1.2001811599e+00
1.2005993055e+00
1.2010016472e+00
1.2013835660e+00
1.2017414625e+00
1.2020727237e+00
1.2023757081e+00
1.2026496452e+00
1.2028945611e+00
1.2031111410e+00
1.2033006258e+00
1.2034646677e+00
1.2036052266e+00
1.2037244416e+00
1.2038245475e+00
1.2039077759e+00
1.2039763006e+00
1.2040321728e+00
1.2040772954e+00
1.2041133890e+00
1.2041419899e+00
1.2041644386e+00
1.2041818943e+00
1.2041953372e+00
1.2042055913e+00
1.2042133338e+00
1.2042191198e+00
1.2042233930e+00
1.2042265090e+00
1.2042287450e+00
1.2042303182e+00
1.2042313938e+00
1.2042320991e+00
1.2042325281e+00
1.2042327527e+00
1.2042328246e+00
1.2042327830e+00
1.2042326560e+00
1.2042324654e+00
1.2042322271e+00
1.2042319548e+00
1.2042316603e+00
1.2042313560e+00
1.2042310553e+00
1.2042307752e+00
1.2042305368e+00
1.2042303678e+00
1.2042303041e+00
1.2042303914e+00
1.2042306873e+00
1.2042312624e+00
1.2042322015e+00
1.2042336033e+00
1.2042355795e+00
1.2042382515e+00
1.2042417468e+00
1.2042461916e+00
1.2042517035e+00
1.2042583810e+00
1.2042662938e+00
1.2042754714e+00
1.2042858941e+00
1.2042974843e+00
1.2043101037e+00
1.2043235510e+00
1.2043375687e+00
1.2043518504e+00
1.2043660572e+00
1.2043798335e+00
1.2043928298e+00
1.2044047220e+00
1.2044152336e+00
1.2044241508e+00
1.2044313378e+00
1.2044367408e+00
1.2044403921e+00
1.2044424006e+00
1.2044429443e+00
1.2044422500e+00
1.2044405796e+00
1.2044382068e+00
1.2044354053e+00
1.2044324340e+00
1.2044295405e+00
1.2044269691e+00
1.2044250040e+00
1.2044240531e+00
1.2044713682e+00
1.1965591478e+00
1.1966498964e+00
1.1967746492e+00
1.1969584424e+00
1.1971969008e+00
1.1974843760e+00
1.1978141788e+00
1.1981788960e+00
1.1985706309e+00
1.1989813306e+00
1.1994030106e+00
1.1998280489e+00
1.2002493559e+00
1.2006605958e+00
1.2010562751e+00
1.2014318693e+00
1.2017838226e+00
1.2021095816e+00
1.2024075184e+00
1.2026768898e+00
1.2029177103e+00
1.2031306664e+00
1.2033169694e+00
1.2034782548e+00
1.2036164424e+00
1.2037336451e+00
1.2038320539e+00
1.2039138709e+00
1.2039812281e+00
1.2040361489e+00
1.2040804993e+00
1.2041159764e+00
1.2041440864e+00
1.2041661517e+00
1.2041833080e+00
1.2041965227e+00
1.2042066024e+00
1.2042142161e+00
1.2042199061e+00
1.2042241117e+00
1.2042271795e+00
1.2042293843e+00
1.2042309373e+00
1.2042320030e+00
1.2042327043e+00
1.2042331356e+00
1.2042333656e+00
1.2042334469e+00
1.2042334166e+00
1.2042333037e+00
1.2042331286e+00
1.2042329083e+00
1.2042326558e+00
1.2042323842e+00
1.2042321059e+00
1.2042318361e+00
1.2042315929e+00
1.2042314002e+00
1.2042312882e+00
1.2042312968e+00
1.2042314761e+00
1.2042318891e+00
1.2042326126e+00
1.2042337380e+00
1.2042353708e+00
1.2042376286e+00
1.2042406381e+00
1.2042445290e+00
1.2042494274e+00
1.2042554457e+00
1.2042626730e+00
1.2042711628e+00
1.2042809233e+00
1.2042919067e+00
1.2043040036e+00
1.2043170393e+00
1.2043307762e+00
1.2043449204e+00
1.2043591349e+00
1.2043730555e+00
1.2043863126e+00
1.2043985517e+00
1.2044094579e+00
1.2044187739e+00
1.2044263178e+00
1.2044319923e+00
1.2044357911e+00
1.2044377940e+00
1.2044381618e+00
1.2044371197e+00
1.2044349441e+00
1.2044319406e+00
1.2044284322e+00
1.2044247412e+00
1.2044211881e+00
1.2044180904e+00
1.2044157852e+00
1.2044146644e+00
1.2044152554e+00
1.2044629552e+00
1.1967453340e+00
1.1968361159e+00
1.1969584424e+00
1.1971381934e+00
1.1973711354e+00
1.1976517705e+00
1.1979736240e+00
1.1983294643e+00
1.1987116291e+00
1.1991122495e+00
1.1995235700e+00
1.1999381357e+00
1.2003490593e+00
1.2007501397e+00
1.2011360432e+00
1.2015023366e+00
1.2018455738e+00
1.2021632467e+00
1.2024537867e+00
1.2027164543e+00
1.2029512799e+00
1.2031589212e+00
1.2033405731e+00
1.2034978208e+00
1.2036325479e+00
1.2037468069e+00
1.2038427435e+00
1.2039224986e+00
1.2039881586e+00
1.2040416907e+00
1.2040849207e+00
1.2041194984e+00
1.2041468973e+00
1.2041684024e+00
1.2041851251e+00
1.2041980048e+00
1.2042078314e+00
1.2042152536e+00
1.2042208032e+00
1.2042249052e+00
1.2042279003e+00
1.2042300536e+00
1.2042315734e+00
1.2042326176e+00
1.2042333080e+00
1.2042337348e+00
1.2042339666e+00
1.2042340530e+00
1.2042340318e+00
1.2042339299e+00
1.2042337686e+00
1.2042335638e+00
1.2042333295e+00
1.2042330783e+00
1.2042328242e+00
1.2042325826e+00
1.2042323738e+00
1.2042322232e+00
1.2042321644e+00
1.2042322402e+00
1.2042325056e+00
1.2042330285e+00
1.2042338917e+00
1.2042351929e+00
1.2042370440e+00
1.2042395690e+00
1.2042428991e+00
1.2042471674e+00
1.2042524993e+00
1.2042590035e+00
1.2042667599e+00
1.2042758076e+00
1.2042861341e+00
1.2042976661e+00
1.2043102631e+00
1.2043237166e+00
1.2043377532e+00
1.2043520451e+00
1.2043662244e+00
1.2043799033e+00
1.2043926963e+00
1.2044042455e+00
1.2044142422e+00
1.2044224486e+00
1.2044287112e+00
1.2044329722e+00
1.2044352681e+00
1.2044357285e+00
1.2044345617e+00
1.2044320425e+00
1.2044284906e+00
1.2044242567e+00
1.2044197012e+00
1.2044151877e+00
1.2044110726e+00
1.2044077134e+00
1.2044054780e+00
1.2044047769e+00
1.2044061003e+00
1.2044521429e+00
1.1969883845e+00
1.1970781624e+00
1.1971969008e+00
1.1973711354e+00
1.1975967375e+00
1.1978684157e+00
1.1981798934e+00
1.1985242129e+00
1.1988939442e+00
1.1992815121e+00
1.1996793905e+00
1.2000804020e+00
1.2004778590e+00
1.2008657935e+00
1.2012390219e+00
1.2015932836e+00
1.2019252236e+00
1.2022324398e+00
1.2025133966e+00
1.2027673993e+00
1.2029944623e+00
1.2031952384e+00
1.2033708712e+00
1.2035229077e+00
1.2036531595e+00
1.2037636227e+00
1.2038563643e+00
1.2039334636e+00
1.2039969314e+00
1.2040486771e+00
1.2040904604e+00
1.2041238823e+00
1.2041503626e+00
1.2041711486e+00
1.2041873104e+00
1.2041997603e+00
1.2042092581e+00
1.2042164342e+00
1.2042217994e+00
1.2042257676e+00
1.2042286650e+00
1.2042307506e+00
1.2042322231e+00
1.2042332372e+00
1.2042339086e+00
1.2042343263e+00
1.2042345549e+00
1.2042346438e+00
1.2042346283e+00
1.2042345357e+00
1.2042343857e+00
1.2042341949e+00
1.2042339765e+00
1.2042337441e+00
1.2042335116e+00
1.2042332960e+00
1.2042331185e+00
1.2042330069e+00
1.2042329969e+00
1.2042331351e+00
1.2042334803e+00
1.2042341055e+00
1.2042350990e+00
1.2042365647e+00
1.2042386210e+00
1.2042413976e+00
1.2042450309e+00
1.2042496569e+00
1.2042554016e+00
1.2042623702e+00
1.2042706344e+00
1.2042802203e+00
1.2042910964e+00
1.2043031652e+00
1.2043162572e+00
1.2043301315e+00
1.2043444808e+00
1.2043589442e+00
1.2043731241e+00
1.2043866087e+00
1.2043989976e+00
1.2044099268e+00
1.2044190940e+00
1.2044262774e+00
1.2044313522e+00
1.2044342950e+00
1.2044351864e+00
1.2044342003e+00
1.2044315941e+00
1.2044276864e+00
1.2044228419e+00
1.2044174471e+00
1.2044118987e+00
1.2044065860e+00
1.2044018911e+00
1.2043981844e+00
1.2043958389e+00
1.2043952407e+00
1.2043968119e+00
1.2044401759e+00
1.1972822064e+00
1.1973701932e+00
1.1974843760e+00
1.1976517705e+00
1.1978684157e+00
1.1981292048e+00
1.1984281452e+00
1.1987585368e+00
1.1991132880e+00
1.1994851040e+00
1.1998668021e+00
1.2002514675e+00
1.2006327199e+00
1.2010048060e+00
1.2013627857e+00
1.2017025462e+00
1.2020208980e+00
1.2023155150e+00
1.2025849488e+00
1.2028285147e+00
1.2030462470e+00
1.2032387570e+00
1.2034071584e+00
1.2035529227e+00
1.2036778009e+00
1.2037836975e+00
1.2038726056e+00
1.2039465110e+00
1.2040073503e+00
1.2040569481e+00
1.2040969984e+00
1.2041290308e+00
1.2041544119e+00
1.2041743327e+00
1.2041898239e+00
1.2042017558e+00
1.2042108604e+00
1.2042177388e+00
1.2042228835e+00
1.2042266881e+00
1.2042294683e+00
1.2042314693e+00
1.2042328839e+00
1.2042338583e+00
1.2042345053e+00
1.2042349081e+00
1.2042351305e+00
1.2042352183e+00
1.2042352067e+00
1.2042351207e+00
1.2042349806e+00
1.2042348015e+00
1.2042345975e+00
1.2042343816e+00
1.2042341689e+00
1.2042339766e+00
1.2042338277e+00
1.2042337514e+00
1.2042337862e+00
1.2042339814e+00
1.2042343999e+00
1.2042351193e+00
1.2042362333e+00
1.2042378518e+00
1.2042400992e+00
1.2042431111e+00
1.2042470291e+00
1.2042519924e+00
1.2042581280e+00
1.2042655383e+00
1.2042742884e+00
1.2042843922e+00
1.2042958013e+00
1.2043083953e+00
1.2043219779e+00
1.2043362772e+00
1.2043509540e+00
1.2043656150e+00
1.2043798338e+00
1.2043931750e+00
1.2044052217e+00
1.2044156040e+00
1.2044240228e+00
1.2044302722e+00
1.2044342508e+00
1.2044359701e+00
1.2044355490e+00
1.2044332070e+00
1.2044292441e+00
1.2044240245e+00
1.2044179503e+00
1.2044114452e+00
1.2044049316e+00
1.2043988230e+00
1.2043935122e+00
1.2043893756e+00
1.2043867738e+00
1.2043860646e+00
1.2043876045e+00
1.2044278344e+00
1.1976197555e+00
1.1977053685e+00
1.1978141788e+00
1.1979736240e+00
1.1981798934e+00
1.1984281452e+00
1.1987126453e+00
1.1990270519e+00
1.1993645858e+00
1.1997183446e+00
1.2000814617e+00
1.2004473971e+00
1.2008100486e+00
1.2011639796e+00
1.2015044606e+00
1.2018276125e+00
1.2021303751e+00
1.2024105647e+00
1.2026667819e+00
1.2028983997e+00
1.2031054330e+00
1.2032884831e+00
1.2034485949e+00
1.2035871840e+00
1.2037059041e+00
1.2038065791e+00
1.2038910951e+00
1.2039613504e+00
1.2040191792e+00
1.2040663241e+00
1.2041043896e+00
1.2041348362e+00
1.2041589580e+00
1.2041778925e+00
1.2041926148e+00
1.2042039565e+00
1.2042126096e+00
1.2042191488e+00
1.2042240391e+00
1.2042276574e+00
1.2042303009e+00
1.2042322051e+00
1.2042335509e+00
1.2042344792e+00
1.2042350951e+00
1.2042354798e+00
1.2042356919e+00
1.2042357767e+00
1.2042357660e+00
1.2042356853e+00
1.2042355527e+00
1.2042353841e+00
1.2042351923e+00
1.2042349915e+00
1.2042347960e+00
1.2042346250e+00
1.2042345015e+00
1.2042344572e+00
1.2042345322e+00
1.2042347791e+00
1.2042352641e+00
1.2042360694e+00
1.2042372937e+00
1.2042390525e+00
1.2042414762e+00
1.2042447064e+00
1.2042488896e+00
1.2042541687e+00
1.2042606722e+00
1.2042685009e+00
1.2042777137e+00
1.2042883145e+00
1.2043002389e+00
1.2043133464e+00
1.2043274150e+00
1.2043421444e+00
1.2043571642e+00
1.2043720505e+00
1.2043863484e+00
1.2043995986e+00
1.2044113678e+00
1.2044212776e+00
1.2044290316e+00
1.2044344350e+00
1.2044374099e+00
1.2044379969e+00
1.2044363534e+00
1.2044327380e+00
1.2044274948e+00
1.2044210266e+00
1.2044137751e+00
1.2044061932e+00
1.2043987305e+00
1.2043918152e+00
1.2043858508e+00
1.2043812100e+00
1.2043782427e+00
1.2043772769e+00
1.2043786262e+00
1.2044155480e+00
1.1979933055e+00
1.1980760950e+00
1.1981788960e+00
1.1983294643e+00
1.1985242129e+00
1.1987585368e+00
1.1990270519e+00
1.1993237390e+00
1.1996422377e+00
1.1999759994e+00
1.2003185851e+00
1.2006637888e+00
1.2010058929e+00
1.2013397348e+00
1.2016608897e+00
1.2019656685e+00
1.2022512171e+00
1.2025154504e+00
1.2027570764e+00
1.2029754829e+00
1.2031707072e+00
1.2033432998e+00
1.2034942647e+00
1.2036249237e+00
1.2037368512e+00
1.2038317567e+00
1.2039114301e+00
1.2039776532e+00
1.2040321644e+00
1.2040765998e+00
1.2041124794e+00
1.2041411743e+00
1.2041639103e+00
1.2041817547e+00
1.2041956316e+00
1.2042063204e+00
1.2042144775e+00
1.2042206407e+00
1.2042252516e+00
1.2042286623e+00
1.2042311556e+00
1.2042329508e+00
1.2042342207e+00
1.2042350957e+00
1.2042356771e+00
1.2042360391e+00
1.2042362389e+00
1.2042363175e+00
1.2042363066e+00
1.2042362288e+00
1.2042361027e+00
1.2042359424e+00
1.2042357617e+00
1.2042355735e+00
1.2042353938e+00
1.2042352411e+00
1.2042351406e+00
1.2042351243e+00
1.2042352353e+00
1.2042355282e+00
1.2042360729e+00
1.2042369553e+00
1.2042382793e+00
1.2042401656e+00
1.2042427503e+00
1.2042461807e+00
1.2042506087e+00
1.2042561811e+00
1.2042630285e+00
1.2042712504e+00
1.2042809019e+00
1.2042919772e+00
1.2043043990e+00
1.2043180071e+00
1.2043325571e+00
1.2043477211e+00
1.2043630999e+00
1.2043782398e+00
1.2043926579e+00
1.2044058710e+00
1.2044174282e+00
1.2044269416e+00
1.2044341141e+00
1.2044387614e+00
1.2044408232e+00
1.2044403688e+00
1.2044375880e+00
1.2044327790e+00
1.2044263234e+00
1.2044186646e+00
1.2044102765e+00
1.2044016442e+00
1.2043932375e+00
1.2043855018e+00
1.2043788446e+00
1.2043736387e+00
1.2043702202e+00
1.2043688986e+00
1.2043699559e+00
1.2044035282e+00
1.1983946929e+00
1.1984743416e+00
1.1985706309e+00
1.1987116291e+00
1.1988939442e+00
1.1991132880e+00
1.1993645858e+00
1.1996422377e+00
1.1999402543e+00
1.2002525470e+00
1.2005730530e+00
1.2008960062e+00
1.2012160211e+00
1.2015283069e+00
1.2018286911e+00
1.2021137584e+00
1.2023808106e+00
1.2026279284e+00
1.2028538797e+00
1.2030581180e+00
1.2032406592e+00
1.2034020394e+00
1.2035431823e+00
1.2036653414e+00
1.2037699766e+00
1.2038586998e+00
1.2039331754e+00
1.2039950796e+00
1.2040460302e+00
1.2040875650e+00
1.2041210986e+00
1.2041479194e+00
1.2041691679e+00
1.2041858470e+00
1.2041988158e+00
1.2042088074e+00
1.2042164309e+00
1.2042221929e+00
1.2042265025e+00
1.2042296919e+00
1.2042320223e+00
1.2042337012e+00
1.2042348877e+00
1.2042357057e+00
1.2042362478e+00
1.2042365852e+00
1.2042367696e+00
1.2042368410e+00
1.2042368274e+00
1.2042367517e+00
1.2042366299e+00
1.2042364770e+00
1.2042363052e+00
1.2042361285e+00
1.2042359620e+00
1.2042358257e+00
1.2042357449e+00
1.2042357535e+00
1.2042358957e+00
1.2042362291e+00
1.2042368262e+00
1.2042377770e+00
1.2042391896e+00
1.2042411900e+00
1.2042439196e+00
1.2042475317e+00
1.2042521831e+00
1.2042580253e+00
1.2042651910e+00
1.2042737804e+00
1.2042838446e+00
1.2042953712e+00
1.2043082701e+00
1.2043223655e+00
1.2043373907e+00
1.2043529935e+00
1.2043687467e+00
1.2043841683e+00
1.2043987477e+00
1.2044119781e+00
1.2044233896e+00
1.2044325828e+00
1.2044392586e+00
1.2044432381e+00
1.2044444782e+00
1.2044430705e+00
1.2044392369e+00
1.2044333086e+00
1.2044257060e+00
1.2044169062e+00
1.2044074187e+00
1.2043977538e+00
1.2043884055e+00
1.2043798308e+00
1.2043724463e+00
1.2043666209e+00
1.2043626850e+00
1.2043609314e+00
1.2043616267e+00
1.2043918601e+00
1.1988156108e+00
1.1988918861e+00
1.1989813306e+00
1.1991122495e+00
1.1992815121e+00
1.1994851040e+00
1.1997183446e+00
1.1999759994e+00
1.2002525470e+00
1.2005422985e+00
1.2008396687e+00
1.2011392692e+00
1.2014361435e+00
1.2017258117e+00
1.2020044407e+00
1.2022688309e+00
1.2025165133e+00
1.2027456811e+00
1.2029552205e+00
1.2031446030e+00
1.2033138673e+00
1.2034634932e+00
1.2035943570e+00
1.2037076069e+00
1.2038046123e+00
1.2038868570e+00
1.2039558961e+00
1.2040132751e+00
1.2040605031e+00
1.2040989988e+00
1.2041300810e+00
1.2041549382e+00
1.2041746333e+00
1.2041900911e+00
1.2042021125e+00
1.2042113726e+00
1.2042184400e+00
1.2042237805e+00
1.2042277764e+00
1.2042307324e+00
1.2042328933e+00
1.2042344488e+00
1.2042355485e+00
1.2042363050e+00
1.2042368061e+00
1.2042371159e+00
1.2042372840e+00
1.2042373457e+00
1.2042373288e+00
1.2042372530e+00
1.2042371350e+00
1.2042369875e+00
1.2042368237e+00
1.2042366562e+00
1.2042365015e+00
1.2042363788e+00
1.2042363151e+00
1.2042363447e+00
1.2042365139e+00
1.2042368818e+00
1.2042375242e+00
1.2042385342e+00
1.2042400242e+00
1.2042421248e+00
1.2042449831e+00
1.2042487573e+00
1.2042536102e+00
1.2042596973e+00
1.2042671551e+00
1.2042760841e+00
1.2042865342e+00
1.2042984865e+00
1.2043118416e+00
1.2043264083e+00
1.2043419016e+00
1.2043579456e+00
1.2043740877e+00
1.2043898181e+00
1.2044045998e+00
1.2044179012e+00
1.2044292329e+00
1.2044381827e+00
1.2044444454e+00
1.2044478466e+00
1.2044483541e+00
1.2044460816e+00
1.2044412759e+00
1.2044343021e+00
1.2044256122e+00
1.2044157196e+00
1.2044051628e+00
1.2043944816e+00
1.2043841888e+00
1.2043747582e+00
1.2043666113e+00
1.2043601207e+00
1.2043556095e+00
1.2043533644e+00
1.2043536393e+00
1.2043805676e+00
1.1992478532e+00
1.1993206233e+00
1.1994030106e+00
1.1995235700e+00
1.1996793905e+00
1.1998668021e+00
1.2000814617e+00
1.2003185851e+00
1.2005730530e+00
1.2008396687e+00
1.2011132539e+00
1.2013888911e+00
1.2016619829e+00
1.2019284465e+00
1.2021847222e+00
1.2024279024e+00
1.2026556870e+00
1.2028664454e+00
1.2030591291e+00
1.2032332785e+00
1.2033889095e+00
1.2035264853e+00
1.2036467959e+00
1.2037509147e+00
1.2038400884e+00
1.2039156950e+00
1.2039791544e+00
1.2040318983e+00
1.2040753062e+00
1.2041106905e+00
1.2041392572e+00
1.2041621050e+00
1.2041802058e+00
1.2041944147e+00
1.2042054631e+00
1.2042139760e+00
1.2042204718e+00
1.2042253821e+00
1.2042290548e+00
1.2042317730e+00
1.2042337586e+00
1.2042351884e+00
1.2042361975e+00
1.2042368915e+00
1.2042373489e+00
1.2042376304e+00
1.2042377800e+00
1.2042378317e+00
1.2042378096e+00
1.2042377334e+00
1.2042376172e+00
1.2042374745e+00
1.2042373166e+00
1.2042371574e+00
1.2042370120e+00
1.2042369012e+00
1.2042368513e+00
1.2042368987e+00
1.2042370900e+00
1.2042374870e+00
1.2042381672e+00
1.2042392273e+00
1.2042407830e+00
1.2042429699e+00
1.2042459396e+00
1.2042498562e+00
1.2042548874e+00
1.2042611941e+00
1.2042689159e+00
1.2042781561e+00
1.2042889628e+00
1.2043013143e+00
1.2043151019e+00
1.2043301229e+00
1.2043460745e+00
1.2043625609e+00
1.2043791041e+00
1.2043951692e+00
1.2044101923e+00
1.2044236177e+00
1.2044349350e+00
1.2044437168e+00
1.2044496504e+00
1.2044525609e+00
1.2044524258e+00
1.2044493739e+00
1.2044436775e+00
1.2044357276e+00
1.2044260100e+00
1.2044150675e+00
1.2044034712e+00
1.2043917848e+00
1.2043805449e+00
1.2043702383e+00
1.2043612983e+00
1.2043540984e+00
1.2043489631e+00
1.2043461727e+00
1.2043459787e+00
1.2043696420e+00
1.1996835841e+00
1.1997527781e+00
1.1998280489e+00
1.1999381357e+00
1.2000804020e+00
1.2002514675e+00
1.2004473971e+00
1.2006637888e+00
1.2008960062e+00
1.2011392692e+00
1.2013888911e+00
1.2016403476e+00
1.2018894830e+00
1.2021325374e+00
1.2023663004e+00
1.2025880886e+00
1.2027958369e+00
1.2029880320e+00
1.2031637457e+00
1.2033225376e+00
1.2034644458e+00
1.2035898753e+00
1.2036995658e+00
1.2037944822e+00
1.2038757765e+00
1.2039446943e+00
1.2040025419e+00
1.2040506158e+00
1.2040901829e+00
1.2041224326e+00
1.2041484712e+00
1.2041692946e+00
1.2041857942e+00
1.2041987444e+00
1.2042088165e+00
1.2042165758e+00
1.2042224985e+00
1.2042269743e+00
1.2042303235e+00
1.2042328008e+00
1.2042346112e+00
1.2042359130e+00
1.2042368317e+00
1.2042374612e+00
1.2042378750e+00
1.2042381266e+00
1.2042382577e+00
1.2042382977e+00
1.2042382703e+00
1.2042381919e+00
1.2042380772e+00
1.2042379374e+00
1.2042377848e+00
1.2042376317e+00
1.2042374944e+00
1.2042373927e+00
1.2042373544e+00
1.2042374155e+00
1.2042376248e+00
1.2042380448e+00
1.2042387557e+00
1.2042398563e+00
1.2042414664e+00
1.2042437249e+00
1.2042467890e+00
1.2042508273e+00
1.2042560133e+00
1.2042625127e+00
1.2042704701e+00
1.2042799906e+00
1.2042911242e+00
1.2043038453e+00