# vtk DataFile Version 2.0
Blank
ASCII
DATASET STRUCTURED_GRID
DIMENSIONS 101 101 2
POINTS 20402 float
0.0000000000e+00 0.0000000000e+00 0.0000000000e+00
1.0000000000e-02 0.0000000000e+00 0.0000000000e+00
2.0000000000e-02 0.0000000000e+00 0.0000000000e+00
3.0000000000e-02 0.0000000000e+00 0.0000000000e+00
4.0000000000e-02 0.0000000000e+00 0.0000000000e+00
5.0000000000e-02 0.0000000000e+00 0.0000000000e+00
6.0000000000e-02 0.0000000000e+00 0.0000000000e+00
7.0000000000e-02 0.0000000000e+00 0.0000000000e+00
8.0000000000e-02 0.0000000000e+00 0.0000000000e+00
9.0000000000e-02 0.0000000000e+00 0.0000000000e+00
1.0000000000e-01 0.0000000000e+00 0.0000000000e+00
1.1000000000e-01 0.0000000000e+00 0.0000000000e+00
1.2000000000e-01 0.0000000000e+00 0.0000000000e+00
1.3000000000e-01 0.0000000000e+00 0.0000000000e+00
1.4000000000e-01 0.0000000000e+00 0.0000000000e+00
1.5000000000e-01 0.0000000000e+00 0.0000000000e+00
1.6000000000e-01 0.0000000000e+00 0.0000000000e+00
1.7000000000e-01 0.0000000000e+00 0.0000000000e+00
1.8000000000e-01 0.0000000000e+00 0.0000000000e+00
1.9000000000e-01 0.0000000000e+00 0.0000000000e+00
2.0000000000e-01 0.0000000000e+00 0.0000000000e+00
2.1000000000e-01 0.0000000000e+00 0.0000000000e+00
2.2000000000e-01 0.0000000000e+00 0.0000000000e+00
2.3000000000e-01 0.0000000000e+00 0.0000000000e+00
2.4000000000e-01 0.0000000000e+00 0.0000000000e+00
2.5000000000e-01 0.0000000000e+00 0.0000000000e+00
2.6000000000e-01 0.0000000000e+00 0.0000000000e+00
2.7000000000e-01 0.0000000000e+00 0.0000000000e+00
2.8000000000e-01 0.0000000000e+00 0.0000000000e+00
2.9000000000e-01 0.0000000000e+00 0.0000000000e+00
3.0000000000e-01 0.0000000000e+00 0.0000000000e+00
3.1000000000e-01 0.0000000000e+00 0.0000000000e+00
3.2000000000e-01 0.0000000000e+00 0.0000000000e+00
3.3000000000e-01 0.0000000000e+00 0.0000000000e+00
3.4000000000e-01 0.0000000000e+00 0.0000000000e+00
3.5000000000e-01 0.0000000000e+00 0.0000000000e+00
3.6000000000e-01 0.0000000000e+00 0.0000000000e+00
3.7000000000e-01 0.0000000000e+00 0.0000000000e+00
3.8000000000e-01 0.0000000000e+00 0.0000000000e+00
3.9000000000e-01 0.0000000000e+00 0.0000000000e+00
4.0000000000e-01 0.0000000000e+00 0.0000000000e+00
4.1000000000e-01 0.0000000000e+00 0.0000000000e+00
4.2000000000e-01 0.0000000000e+00 0.0000000000e+00
4.3000000000e-01 0.0000000000e+00 0.0000000000e+00
4.4000000000e-01 0.0000000000e+00 0.0000000000e+00
4.5000000000e-01 0.0000000000e+00 0.0000000000e+00
4.6000000000e-01 0.0000000000e+00 0.0000000000e+00
4.7000000000e-01 0.0000000000e+00 0.0000000000e+00
4.8000000000e-01 0.0000000000e+00 0.0000000000e+00
4.9000000000e-01 0.0000000000e+00 0.0000000000e+00
5.0000000000e-01 0.0000000000e+00 0.0000000000e+00
5.1000000000e-01 0.0000000000e+00 0.0000000000e+00
5.2000000000e-01 0.0000000000e+00 0.0000000000e+00
5.3000000000e-01 0.0000000000e+00 0.0000000000e+00
5.4000000000e-01 0.0000000000e+00 0.0000000000e+00
5.5000000000e-01 0.0000000000e+00 0.0000000000e+00
5.6000000000e-01 0.0000000000e+00 0.0000000000e+00
5.7000000000e-01 0.0000000000e+00 0.0000000000e+00
5.8000000000e-01 0.0000000000e+00 0.0000000000e+00
5.9000000000e-01 0.0000000000e+00 0.0000000000e+00
6.0000000000e-01 0.0000000000e+00 0.0000000000e+00
6.1000000000e-01 0.0000000000e+00 0.0000000000e+00
6.2000000000e-01 0.0000000000e+00 0.0000000000e+00
6.3000000000e-01 0.0000000000e+00 0.0000000000e+00
6.4000000000e-01 0.0000000000e+00 0.0000000000e+00
6.5000000000e-01 0.0000000000e+00 0.0000000000e+00
6.6000000000e-01 0.0000000000e+00 0.0000000000e+00
6.7000000000e-01 0.0000000000e+00 0.0000000000e+00
6.8000000000e-01 0.0000000000e+00 0.0000000000e+00
6.9000000000e-01 0.0000000000e+00 0.0000000000e+00
7.0000000000e-01 0.0000000000e+00 0.0000000000e+00
7.1000000000e-01 0.0000000000e+00 0.0000000000e+00
7.2000000000e-01 0.0000000000e+00 0.0000000000e+00
7.3000000000e-01 0.0000000000e+00 0.0000000000e+00
7.4000000000e-01 0.0000000000e+00 0.0000000000e+00
7.5000000000e-01 0.0000000000e+00 0.0000000000e+00
7.6000000000e-01 0.0000000000e+00 0.0000000000e+00
7.7000000000e-01 0.0000000000e+00 0.0000000000e+00
7.8000000000e-01 0.0000000000e+00 0.0000000000e+00
7.9000000000e-01 0.0000000000e+00 0.0000000000e+00
8.0000000000e-01 0.0000000000e+00 0.0000000000e+00
8.1000000000e-01 0.0000000000e+00 0.0000000000e+00
8.2000000000e-01 0.0000000000e+00 0.0000000000e+00
8.3000000000e-01 0.0000000000e+00 0.0000000000e+00
8.4000000000e-01 0.0000000000e+00 0.0000000000e+00
8.5000000000e-01 0.0000000000e+00 0.0000000000e+00
8.6000000000e-01 0.0000000000e+00 0.0000000000e+00
8.7000000000e-01 0.0000000000e+00 0.0000000000e+00
8.8000000000e-01 0.0000000000e+00 0.0000000000e+00
8.9000000000e-01 0.0000000000e+00 0.0000000000e+00
9.0000000000e-01 0.0000000000e+00 0.0000000000e+00
9.1000000000e-01 0.0000000000e+00 0.0000000000e+00
9.2000000000e-01 0.0000000000e+00 0.0000000000e+00
9.3000000000e-01 0.0000000000e+00 0.0000000000e+00
9.4000000000e-01 0.0000000000e+00 0.0000000000e+00
9.5000000000e-01 0.0000000000e+00 0.0000000000e+00
9.6000000000e-01 0.0000000000e+00 0.0000000000e+00
9.7000000000e-01 0.0000000000e+00 0.0000000000e+00
9.8000000000e-01 0.0000000000e+00 0.0000000000e+00
9.9000000000e-01 0.0000000000e+00 0.0000000000e+00
1.0000000000e+00 0.0000000000e+00 0.0000000000e+00
0.0000000000e+00 1.0000000000e-02 0.0000000000e+00
1.0000000000e-02 1.0000000000e-02 0.0000000000e+00
2.0000000000e-02 1.0000000000e-02 0.0000000000e+00
3.0000000000e-02 1.0000000000e-02 0.0000000000e+00
4.0000000000e-02 1.0000000000e-02 0.0000000000e+00
5.0000000000e-02 1.0000000000e-02 0.0000000000e+00
6.0000000000e-02 1.0000000000e-02 0.0000000000e+00
7.0000000000e-02 1.0000000000e-02 0.0000000000e+00
8.0000000000e-02 1.0000000000e-02 0.0000000000e+00
9.0000000000e-02 1.0000000000e-02 0.0000000000e+00
1.0000000000e-01 1.0000000000e-02 0.0000000000e+00
1.1000000000e-01 1.0000000000e-02 0.0000000000e+00
1.2000000000e-01 1.0000000000e-02 0.0000000000e+00
1.3000000000e-01 1.0000000000e-02 0.0000000000e+00
1.4000000000e-01 1.0000000000e-02 0.0000000000e+00
1.5000000000e-01 1.0000000000e-02 0.0000000000e+00
1.6000000000e-01 1.0000000000e-02 0.0000000000e+00
1.7000000000e-01 1.0000000000e-02 0.0000000000e+00
1.8000000000e-01 1.0000000000e-02 0.0000000000e+00
1.9000000000e-01 1.0000000000e-02 0.0000000000e+00
2.0000000000e-01 1.0000000000e-02 0.0000000000e+00
2.1000000000e-01 1.0000000000e-02 0.0000000000e+00
2.2000000000e-01 1.0000000000e-02 0.0000000000e+00
2.3000000000e-01 1.0000000000e-02 0.0000000000e+00
2.4000000000e-01 1.0000000000e-02 0.0000000000e+00
2.5000000000e-01 1.0000000000e-02 0.0000000000e+00
2.6000000000e-01 1.0000000000e-02 0.0000000000e+00
2.7000000000e-01 1.0000000000e-02 0.0000000000e+00
2.8000000000e-01 1.0000000000e-02 0.0000000000e+00
2.9000000000e-01 1.0000000000e-02 0.0000000000e+00
3.0000000000e-01 1.0000000000e-02 0.0000000000e+00
3.1000000000e-01 1.0000000000e-02 0.0000000000e+00
3.2000000000e-01 1.0000000000e-02 0.0000000000e+00
3.3000000000e-01 1.0000000000e-02 0.0000000000e+00
3.4000000000e-01 1.0000000000e-02 0.0000000000e+00
3.5000000000e-01 1.0000000000e-02 0.0000000000e+00
3.6000000000e-01 1.0000000000e-02 0.0000000000e+00
3.7000000000e-01 1.0000000000e-02 0.0000000000e+00
3.8000000000e-01 1.0000000000e-02 0.0000000000e+00
3.9000000000e-01 1.0000000000e-02 0.0000000000e+00
4.0000000000e-01 1.0000000000e-02 0.0000000000e+00
4.1000000000e-01 1.0000000000e-02 0.0000000000e+00
4.2000000000e-01 1.0000000000e-02 0.0000000000e+00
4.3000000000e-01 1.0000000000e-02 0.0000000000e+00
4.4000000000e-01 1.0000000000e-02 0.0000000000e+00
4.5000000000e-01 1.0000000000e-02 0.0000000000e+00
4.6000000000e-01 1.0000000000e-02 0.0000000000e+00
4.7000000000e-01 1.0000000000e-02 0.0000000000e+00
4.8000000000e-01 1.0000000000e-02 0.0000000000e+00
4.9000000000e-01 1.0000000000e-02 0.0000000000e+00
5.0000000000e-01 1.0000000000e-02 0.0000000000e+00
5.1000000000e-01 1.0000000000e-02 0.0000000000e+00
5.2000000000e-01 1.0000000000e-02 0.0000000000e+00
5.3000000000e-01 1.0000000000e-02 0.0000000000e+00
5.4000000000e-01 1.0000000000e-02 0.0000000000e+00
5.5000000000e-01 1.0000000000e-02 0.0000000000e+00
5.6000000000e-01 1.0000000000e-02 0.0000000000e+00
5.7000000000e-01 1.0000000000e-02 0.0000000000e+00
5.8000000000e-01 1.0000000000e-02 0.0000000000e+00
5.9000000000e-01 1.0000000000e-02 0.0000000000e+00
6.0000000000e-01 1.0000000000e-02 0.0000000000e+00
6.1000000000e-01 1.0000000000e-02 0.0000000000e+00
6.2000000000e-01 1.0000000000e-02 0.0000000000e+00
6.3000000000e-01 1.0000000000e-02 0.0000000000e+00
6.4000000000e-01 1.0000000000e-02 0.0000000000e+00
6.5000000000e-01 1.0000000000e-02 0.0000000000e+00
6.6000000000e-01 1.0000000000e-02 0.0000000000e+00
6.7000000000e-01 1.0000000000e-02 0.0000000000e+00
6.8000000000e-01 1.0000000000e-02 0.0000000000e+00
6.9000000000e-01 1.0000000000e-02 0.0000000000e+00
7.0000000000e-01 1.0000000000e-02 0.0000000000e+00
7.1000000000e-01 1.0000000000e-02 0.0000000000e+00
7.2000000000e-01 1.0000000000e-02 0.0000000000e+00
7.3000000000e-01 1.0000000000e-02 0.0000000000e+00
7.4000000000e-01 1.0000000000e-02 0.0000000000e+00
7.5000000000e-01 1.0000000000e-02 0.0000000000e+00
7.6000000000e-01 1.0000000000e-02 0.0000000000e+00
7.7000000000e-01 1.0000000000e-02 0.0000000000e+00
7.8000000000e-01 1.0000000000e-02 0.0000000000e+00
7.9000000000e-01 1.0000000000e-02 0.0000000000e+00
8.0000000000e-01 1.0000000000e-02 0.0000000000e+00
8.1000000000e-01 1.0000000000e-02 0.0000000000e+00
8.2000000000e-01 1.0000000000e-02 0.0000000000e+00
8.3000000000e-01 1.0000000000e-02 0.0000000000e+00
8.4000000000e-01 1.0000000000e-02 0.0000000000e+00
8.5000000000e-01 1.0000000000e-02 0.0000000000e+00
8.6000000000e-01 1.0000000000e-02 0.0000000000e+00
8.7000000000e-01 1.0000000000e-02 0.0000000000e+00
8.8000000000e-01 1.0000000000e-02 0.0000000000e+00
8.9000000000e-01 1.0000000000e-02 0.0000000000e+00
9.0000000000e-01 1.0000000000e-02 0.0000000000e+00
9.1000000000e-01 1.0000000000e-02 0.0000000000e+00
9.2000000000e-01 1.0000000000e-02 0.0000000000e+00
[...]
CELL_DATA 10000

SCALARS massDensity float
LOOKUP_TABLE default
1.2014797855e+00
1.2014915570e+00
1.2015074056e+00
1.2015317260e+00
1.2015642434e+00
1.2016046207e+00
1.2016524664e+00
1.2017073383e+00
1.2017687475e+00
1.2018361625e+00
1.2019090160e+00
1.2019867105e+00
1.2020686262e+00
1.2021541285e+00
1.2022425751e+00
1.2023333241e+00
1.2024257413e+00
1.2025192069e+00
1.2026131222e+00
1.2027069153e+00
1.2028000465e+00
1.2028920126e+00
1.2029823509e+00
1.2030706415e+00
1.2031565101e+00
1.2032396288e+00
1.2033197170e+00
1.2033965409e+00
1.2034699129e+00
1.2035396901e+00
1.2036057722e+00
1.2036680995e+00
1.2037266496e+00
1.2037814345e+00
1.2038324975e+00
1.2038799095e+00
1.2039237659e+00
1.2039641826e+00
1.2040012928e+00
1.2040352439e+00
1.2040661940e+00
1.2040943092e+00
1.2041197606e+00
1.2041427222e+00
1.2041633682e+00
1.2041818712e+00
1.2041984006e+00
1.2042131209e+00
1.2042261909e+00
1.2042377622e+00
1.2042479788e+00
1.2042569762e+00
1.2042648815e+00
1.2042718127e+00
1.2042778792e+00
1.2042831809e+00
1.2042878096e+00
1.2042918481e+00
1.2042953713e+00
1.2042984462e+00
1.2043011322e+00
1.2043034822e+00
1.2043055422e+00
1.2043073524e+00
1.2043089477e+00
1.2043103577e+00
1.2043116080e+00
1.2043127197e+00
1.2043137108e+00
1.2043145961e+00
1.2043153879e+00
1.2043160964e+00
1.2043167297e+00
1.2043172948e+00
1.2043177974e+00
1.2043182426e+00
1.2043186346e+00
1.2043189776e+00
1.2043192753e+00
1.2043195317e+00
1.2043197504e+00
1.2043199357e+00
1.2043200914e+00
1.2043202220e+00
1.2043203316e+00
1.2043204246e+00
1.2043205050e+00
1.2043205768e+00
1.2043206433e+00
1.2043207075e+00
1.2043207714e+00
1.2043208363e+00
1.2043209025e+00
1.2043209693e+00
1.2043210347e+00
1.2043210958e+00
1.2043211481e+00
1.2043211854e+00
1.2043211998e+00
1.2043222974e+00
1.2014915570e+00
1.2015042359e+00
1.2015205234e+00
1.2015450957e+00
1.2015777316e+00
1.2016181306e+00
1.2016659254e+00
1.2017206898e+00
1.2017819455e+00
1.2018491693e+00
1.2019217992e+00
1.2019992428e+00
1.2020808841e+00
1.2021660919e+00
1.2022542270e+00
1.2023446505e+00
1.2024367306e+00
1.2025298502e+00
1.2026234126e+00
1.2027168484e+00
1.2028096198e+00
1.2029012256e+00
1.2029912047e+00
1.2030791391e+00
1.2031646557e+00
1.2032474282e+00
1.2033271770e+00
1.2034036696e+00
1.2034767190e+00
1.2035461835e+00
1.2036119633e+00
1.2036739993e+00
1.2037322694e+00
1.2037867863e+00
1.2038375935e+00
1.2038847621e+00
1.2039283875e+00
1.2039685857e+00
1.2040054899e+00
1.2040392473e+00
1.2040700158e+00
1.2040979613e+00
1.2041232545e+00
1.2041460688e+00
1.2041665778e+00
1.2041849537e+00
1.2042013651e+00
1.2042159758e+00
1.2042289434e+00
1.2042404189e+00
1.2042505451e+00
1.2042594566e+00
1.2042672794e+00
1.2042741305e+00
1.2042801180e+00
1.2042853410e+00
1.2042898901e+00
1.2042938472e+00
1.2042972864e+00
1.2043002738e+00
1.2043028685e+00
1.2043051226e+00
1.2043070819e+00
1.2043087865e+00
1.2043102712e+00
1.2043115659e+00
1.2043126963e+00
1.2043136844e+00
1.2043145486e+00
1.2043153045e+00
1.2043159653e+00
1.2043165420e+00
1.2043170438e+00
1.2043174788e+00
1.2043178535e+00
1.2043181738e+00
1.2043184449e+00
1.2043186715e+00
1.2043188581e+00
1.2043190088e+00
1.2043191278e+00
1.2043192190e+00
1.2043192866e+00
1.2043193344e+00
1.2043193664e+00
1.2043193864e+00
1.2043193982e+00
1.2043194051e+00
1.2043194103e+00
1.2043194165e+00
1.2043194262e+00
1.2043194412e+00
1.2043194628e+00
1.2043194921e+00
1.2043195297e+00
1.2043195764e+00
1.2043196333e+00
1.2043197027e+00
1.2043197907e+00
1.2043209897e+00
1.2015074056e+00
1.2015205234e+00
1.2015369016e+00
1.2015614539e+00
1.2015939792e+00
1.2016341931e+00
1.2016817405e+00
1.2017362040e+00
1.2017971126e+00
1.2018639485e+00
1.2019361551e+00
1.2020131442e+00
1.2020943044e+00
1.2021790083e+00
1.2022666211e+00
1.2023565074e+00
1.2024480396e+00
1.2025406040e+00
1.2026336078e+00
1.2027264847e+00
1.2028187004e+00
1.2029097565e+00
1.2029991948e+00
1.2030865998e+00
1.2031716008e+00
1.2032538734e+00
1.2033331399e+00
1.2034091690e+00
1.2034817754e+00
1.2035508178e+00
1.2036161977e+00
1.2036778560e+00
1.2037357714e+00
1.2037899562e+00
1.2038404540e+00
1.2038873356e+00
1.2039306960e+00
1.2039706506e+00
1.2040073320e+00
1.2040408867e+00
1.2040714718e+00
1.2040992521e+00
1.2041243975e+00
1.2041470804e+00
1.2041674735e+00
1.2041857479e+00
1.2042020711e+00
1.2042166060e+00
1.2042295093e+00
1.2042409307e+00
1.2042510122e+00
1.2042598873e+00
1.2042676812e+00
1.2042745098e+00
1.2042804802e+00
1.2042856909e+00
1.2042902315e+00
1.2042941831e+00
1.2042976189e+00
1.2043006044e+00
1.2043031979e+00
1.2043054509e+00
1.2043074086e+00
1.2043091107e+00
1.2043105914e+00
1.2043118804e+00
1.2043130029e+00
1.2043139807e+00
1.2043148321e+00
1.2043155727e+00
1.2043162156e+00
1.2043167718e+00
1.2043172508e+00
1.2043176606e+00
1.2043180081e+00
1.2043182995e+00
1.2043185402e+00
1.2043187353e+00
1.2043188895e+00
1.2043190072e+00
1.2043190930e+00
1.2043191510e+00
1.2043191857e+00
1.2043192011e+00
1.2043192015e+00
1.2043191910e+00
1.2043191733e+00
1.2043191523e+00
1.2043191312e+00
1.2043191133e+00
1.2043191013e+00
1.2043190976e+00
1.2043191044e+00
1.2043191237e+00
1.2043191574e+00
1.2043192078e+00
1.2043192782e+00
1.2043193738e+00
1.2043195038e+00
1.2043206993e+00
1.2015317260e+00
1.2015450957e+00
1.2015614539e+00
1.2015858858e+00
1.2016181944e+00
1.2016581034e+00
1.2017052655e+00
1.2017592716e+00
1.2018196577e+00
1.2018859130e+00
1.2019574869e+00
1.2020337980e+00
1.2021142405e+00
1.2021981935e+00
1.2022850277e+00
1.2023741140e+00
1.2024648301e+00
1.2025565681e+00
1.2026487405e+00
1.2027407862e+00
1.2028321755e+00
1.2029224147e+00
1.2030110496e+00
1.2030976687e+00
1.2031819044e+00
1.2032634355e+00
1.2033419866e+00
1.2034173290e+00
1.2034892789e+00
1.2035576965e+00
1.2036224841e+00
1.2036835836e+00
1.2037409737e+00
1.2037946671e+00
1.2038447068e+00
1.2038911634e+00
1.2039341310e+00
1.2039737243e+00
1.2040100748e+00
1.2040433277e+00
1.2040736389e+00
1.2041011719e+00
1.2041260951e+00
1.2041485794e+00
1.2041687961e+00
1.2041869147e+00
1.2042031013e+00
1.2042175172e+00
1.2042303177e+00
1.2042416510e+00
1.2042516578e+00
1.2042604702e+00
1.2042682119e+00
1.2042749977e+00
1.2042809337e+00
1.2042861168e+00
1.2042906356e+00
1.2042945703e+00
1.2042979930e+00
1.2043009684e+00
1.2043035538e+00
1.2043057998e+00
1.2043077512e+00
1.2043094468e+00
1.2043109204e+00
1.2043122010e+00
1.2043133137e+00
1.2043142797e+00
1.2043151173e+00
1.2043158418e+00
1.2043164663e+00
1.2043170019e+00
1.2043174581e+00
1.2043178430e+00
1.2043181637e+00
1.2043184267e+00
1.2043186377e+00
1.2043188018e+00
1.2043189243e+00
1.2043190098e+00
1.2043190632e+00
1.2043190889e+00
1.2043190916e+00
1.2043190756e+00
1.2043190455e+00
1.2043190055e+00
1.2043189596e+00
1.2043189120e+00
1.2043188661e+00
1.2043188255e+00
1.2043187933e+00
1.2043187724e+00
1.2043187656e+00
1.2043187754e+00
1.2043188046e+00
1.2043188563e+00
1.2043189347e+00
1.2043190453e+00
1.2043191967e+00
1.2043203321e+00
1.2015642434e+00
1.2015777316e+00
1.2015939792e+00
1.2016181944e+00
1.2016501797e+00
1.2016896622e+00
1.2017363013e+00
1.2017896944e+00
1.2018493852e+00
1.2019148703e+00
1.2019856071e+00
1.2020610215e+00
1.2021405161e+00
1.2022234770e+00
1.2023092835e+00
1.2023973135e+00
1.2024869528e+00
1.2025776003e+00
1.2026686761e+00
1.2027596254e+00
1.2028499252e+00
1.2029390874e+00
1.2030266636e+00
1.2031122468e+00
1.2031954746e+00
1.2032760289e+00
1.2033536384e+00
1.2034280767e+00
1.2034991626e+00
1.2035667579e+00
1.2036307664e+00
1.2036911306e+00
1.2037478299e+00
1.2038008767e+00
1.2038503139e+00
1.2038962111e+00
1.2039386619e+00
1.2039777793e+00
1.2040136936e+00
1.2040465485e+00
1.2040764980e+00
1.2041037037e+00
1.2041283324e+00
1.2041505529e+00
1.2041705344e+00
1.2041884445e+00
1.2042044473e+00
1.2042187022e+00
1.2042313625e+00
1.2042425747e+00
1.2042524775e+00
1.2042612015e+00
1.2042688686e+00
1.2042755920e+00
1.2042814762e+00
1.2042866169e+00
1.2042911012e+00
1.2042950080e+00
1.2042984083e+00
1.2043013655e+00
1.2043039359e+00
1.2043061694e+00
1.2043081097e+00
1.2043097950e+00
1.2043112582e+00
1.2043125280e+00
1.2043136288e+00
1.2043145817e+00
1.2043154044e+00
1.2043161121e+00
1.2043167179e+00
1.2043172327e+00
1.2043176661e+00
1.2043180264e+00
1.2043183208e+00
1.2043185558e+00
1.2043187375e+00
1.2043188714e+00
1.2043189629e+00
1.2043190170e+00
1.2043190387e+00
1.2043190329e+00
1.2043190044e+00
1.2043189580e+00
1.2043188982e+00
1.2043188297e+00
1.2043187568e+00
1.2043186835e+00
1.2043186140e+00
1.2043185518e+00
1.2043185005e+00
1.2043184632e+00
1.2043184431e+00
1.2043184433e+00
1.2043184668e+00
1.2043185171e+00
1.2043185984e+00
1.2043187157e+00
1.2043188757e+00
1.2043199197e+00
1.2016046207e+00
1.2016181306e+00
1.2016341931e+00
1.2016581034e+00
1.2016896622e+00
1.2017285999e+00
1.2017745806e+00
1.2018272091e+00
1.2018860364e+00
1.2019505677e+00
1.2020202690e+00
1.2020945758e+00
1.2021728994e+00
1.2022546362e+00
1.2023391741e+00
1.2024259012e+00
1.2025142119e+00
1.2026035148e+00
1.2026932380e+00
1.2027828357e+00
1.2028717920e+00
1.2029596269e+00
1.2030458981e+00
1.2031302053e+00
1.2032121908e+00
1.2032915422e+00
1.2033679916e+00
1.2034413166e+00
1.2035113384e+00
1.2035779215e+00
1.2036409707e+00
1.2037004299e+00
1.2037562787e+00
1.2038085296e+00
1.2038572250e+00
1.2039024338e+00
1.2039442479e+00
1.2039827793e+00
1.2040181561e+00
1.2040505202e+00
1.2040800235e+00
1.2041068252e+00
1.2041310897e+00
1.2041529834e+00
1.2041726731e+00
1.2041903240e+00
1.2042060976e+00
1.2042201510e+00
1.2042326353e+00
1.2042436945e+00
1.2042534653e+00
1.2042620762e+00
1.2042696470e+00
1.2042762891e+00
1.2042821051e+00
1.2042871891e+00
1.2042916265e+00
1.2042954948e+00
1.2042988635e+00
1.2043017948e+00
1.2043043438e+00
1.2043065593e+00
1.2043084840e+00
1.2043101551e+00
1.2043116050e+00
1.2043128616e+00
1.2043139487e+00
1.2043148869e+00
1.2043156938e+00
1.2043163841e+00
1.2043169708e+00
1.2043174647e+00
1.2043178754e+00
1.2043182112e+00
1.2043184795e+00
1.2043186871e+00
1.2043188401e+00
1.2043189444e+00
1.2043190055e+00
1.2043190288e+00
1.2043190196e+00
1.2043189831e+00
1.2043189242e+00
1.2043188481e+00
1.2043187596e+00
1.2043186635e+00
1.2043185643e+00
1.2043184664e+00
1.2043183740e+00
1.2043182911e+00
1.2043182212e+00
1.2043181680e+00
1.2043181347e+00
1.2043181247e+00
1.2043181412e+00
1.2043181876e+00
1.2043182679e+00
1.2043183862e+00
1.2043185476e+00
1.2043194845e+00
1.2016524664e+00
1.2016659254e+00
1.2016817405e+00
1.2017052655e+00
1.2017363013e+00
1.2017745806e+00
1.2018197736e+00
1.2018714912e+00
1.2019292936e+00
1.2019926947e+00
1.2020611711e+00
1.2021341679e+00
1.2022111081e+00
1.2022913983e+00
1.2023744383e+00
1.2024596265e+00
1.2025463689e+00
1.2026340841e+00
1.2027222111e+00
1.2028102131e+00
1.2028975843e+00
1.2029838527e+00
1.2030685844e+00
1.2031513858e+00
1.2032319063e+00
1.2033098385e+00
1.2033849200e+00
1.2034569319e+00
1.2035256993e+00
1.2035910885e+00
1.2036530070e+00
1.2037113992e+00
1.2037662455e+00
1.2038175582e+00
1.2038653792e+00
1.2039097761e+00
1.2039508398e+00
1.2039886799e+00
1.2040234229e+00
1.2040552078e+00
1.2040841843e+00
1.2041105088e+00
1.2041343427e+00
1.2041558498e+00
1.2041751939e+00
1.2041925371e+00
1.2042080384e+00
1.2042218518e+00
1.2042341258e+00
1.2042450018e+00
1.2042546138e+00
1.2042630880e+00
1.2042705419e+00
1.2042770846e+00
1.2042828168e+00
1.2042878304e+00
1.2042922092e+00
1.2042960289e+00
1.2042993574e+00
1.2043022554e+00
1.2043047768e+00
1.2043069690e+00
1.2043088738e+00
1.2043105272e+00
1.2043119609e+00
1.2043132020e+00
1.2043142736e+00
1.2043151959e+00
1.2043159859e+00
1.2043166582e+00
1.2043172254e+00
1.2043176983e+00
1.2043180863e+00
1.2043183979e+00
1.2043186406e+00
1.2043188211e+00
1.2043189460e+00
1.2043190212e+00
1.2043190526e+00
1.2043190458e+00
1.2043190063e+00
1.2043189397e+00
1.2043188512e+00
1.2043187461e+00
1.2043186296e+00
1.2043185066e+00
1.2043183819e+00
1.2043182600e+00
1.2043181454e+00
1.2043180422e+00
1.2043179543e+00
1.2043178853e+00
1.2043178387e+00
1.2043178179e+00
1.2043178261e+00
1.2043178668e+00
1.2043179432e+00
1.2043180591e+00
1.2043182178e+00
1.2043190407e+00
1.2017073383e+00
1.2017206898e+00
1.2017362040e+00
1.2017592716e+00
1.2017896944e+00
1.2018272091e+00
1.2018714912e+00
1.2019221602e+00
1.2019787844e+00
1.2020408888e+00
1.2021079602e+00
1.2021794564e+00
1.2022548116e+00
1.2023334458e+00
1.2024147705e+00
1.2024981977e+00
1.2025831448e+00
1.2026690435e+00
1.2027553436e+00
1.2028415204e+00
1.2029270779e+00
1.2030115546e+00
1.2030945251e+00
1.2031756046e+00
1.2032544493e+00
1.2033307590e+00
1.2034042760e+00
1.2034747869e+00
1.2035421197e+00
1.2036061445e+00
1.2036667701e+00
1.2037239428e+00
1.2037776430e+00
1.2038278834e+00
1.2038747048e+00
1.2039181740e+00
1.2039583795e+00
1.2039954295e+00
1.2040294476e+00
1.2040605703e+00
1.2040889439e+00
1.2041147222e+00
1.2041380631e+00
1.2041591272e+00
1.2041780748e+00
1.2041950649e+00
1.2042102531e+00
1.2042237903e+00
1.2042358217e+00
1.2042464859e+00
1.2042559141e+00
1.2042642294e+00
1.2042715469e+00
1.2042779734e+00
1.2042836069e+00
1.2042885374e+00
1.2042928465e+00
1.2042966080e+00
1.2042998881e+00
1.2043027460e+00
1.2043052339e+00
1.2043073980e+00
1.2043092787e+00
1.2043109112e+00
1.2043123260e+00
1.2043135493e+00
1.2043146039e+00
1.2043155090e+00
1.2043162813e+00
1.2043169349e+00
1.2043174823e+00
1.2043179341e+00
1.2043182996e+00
1.2043185872e+00
1.2043188044e+00
1.2043189584e+00
1.2043190556e+00
1.2043191022e+00
1.2043191045e+00
1.2043190681e+00
1.2043189991e+00
1.2043189030e+00
1.2043187855e+00
1.2043186521e+00
1.2043185081e+00
1.2043183588e+00
1.2043182091e+00
1.2043180639e+00
1.2043179276e+00
1.2043178045e+00
1.2043176987e+00
1.2043176140e+00
1.2043175538e+00
1.2043175216e+00
1.2043175206e+00
1.2043175540e+00
1.2043176248e+00
1.2043177360e+00
1.2043178903e+00
1.2043185971e+00
1.2017687475e+00
1.2017819455e+00
1.2017971126e+00
1.2018196577e+00
1.2018493852e+00
1.2018860364e+00
1.2019292936e+00
1.2019787844e+00
1.2020340878e+00
1.2020947390e+00
1.2021602380e+00
1.2022300546e+00
1.2023036373e+00
1.2023804192e+00
1.2024598267e+00
1.2025412847e+00
1.2026242256e+00
1.2027080936e+00
1.2027923525e+00
1.2028764893e+00
1.2029600206e+00
1.2030424950e+00
1.2031234982e+00
1.2032026537e+00
1.2032796268e+00
1.2033541237e+00
1.2034258937e+00
1.2034947277e+00
1.2035604588e+00
1.2036229596e+00
1.2036821417e+00
1.2037379524e+00
1.2037903731e+00
1.2038394160e+00
1.2038851216e+00
1.2039275546e+00
1.2039668022e+00
1.2040029697e+00
1.2040361782e+00
1.2040665610e+00
1.2040942613e+00
1.2041194291e+00
1.2041422189e+00
1.2041627873e+00
1.2041812913e+00
1.2041978859e+00
1.2042127231e+00
1.2042259503e+00
1.2042377093e+00
1.2042481351e+00
1.2042573559e+00
1.2042654918e+00
1.2042726549e+00
1.2042789493e+00
1.2042844704e+00
1.2042893058e+00
1.2042935349e+00
1.2042972295e+00
1.2043004537e+00
1.2043032649e+00
1.2043057139e+00
1.2043078453e+00
1.2043096982e+00
1.2043113067e+00
1.2043127001e+00
1.2043139038e+00
1.2043149397e+00
1.2043158265e+00
1.2043165803e+00
1.2043172148e+00
1.2043177421e+00
1.2043181726e+00
1.2043185156e+00
1.2043187794e+00
1.2043189717e+00
1.2043190994e+00
1.2043191694e+00
1.2043191880e+00
1.2043191616e+00
1.2043190964e+00
1.2043189983e+00
1.2043188733e+00
1.2043187273e+00
1.2043185661e+00
1.2043183952e+00
1.2043182201e+00
1.2043180459e+00
1.2043178776e+00
1.2043177200e+00
1.2043175773e+00
1.2043174537e+00
1.2043173531e+00
1.2043172791e+00
1.2043172351e+00
1.2043172241e+00
1.2043172492e+00
1.2043173132e+00
1.2043174185e+00
1.2043175673e+00
1.2043181584e+00
1.2018361625e+00
1.2018491693e+00
1.2018639485e+00
1.2018859130e+00
1.2019148703e+00
1.2019505677e+00
1.2019926947e+00
1.2020408888e+00
1.2020947390e+00
1.2021537936e+00
1.2022175650e+00
1.2022855379e+00
1.2023571746e+00
1.2024319241e+00
1.2025092273e+00
1.2025885254e+00
1.2026692650e+00
1.2027509060e+00
1.2028329256e+00
1.2029148255e+00
1.2029961342e+00
1.2030764134e+00
1.2031552589e+00
1.2032323052e+00
1.2033072258e+00
1.2033797356e+00
1.2034495899e+00
1.2035165861e+00
1.2035805611e+00
1.2036413917e+00
1.2036989913e+00
1.2037533094e+00
1.2038043277e+00
1.2038520584e+00
1.2038965407e+00
1.2039378383e+00
1.2039760358e+00
1.2040112362e+00
1.2040435573e+00
1.2040731291e+00
1.2041000911e+00
1.2041245894e+00
1.2041467746e+00
1.2041667993e+00
1.2041848162e+00
1.2042009764e+00
1.2042154278e+00
1.2042283141e+00
1.2042397730e+00
1.2042499363e+00
1.2042589282e+00
1.2042668657e+00
1.2042738578e+00
1.2042800056e+00
1.2042854017e+00
1.2042901311e+00
1.2042942708e+00
1.2042978902e+00
1.2043010516e+00
1.2043038104e+00
1.2043062155e+00
1.2043083101e+00
1.2043101318e+00
1.2043117134e+00
1.2043130831e+00
1.2043142654e+00
1.2043152813e+00
1.2043161488e+00
1.2043168833e+00
1.2043174983e+00
1.2043180053e+00
1.2043184145e+00
1.2043187352e+00
1.2043189754e+00
1.2043191429e+00
1.2043192449e+00
1.2043192881e+00
1.2043192792e+00
1.2043192246e+00
1.2043191309e+00
1.2043190042e+00
1.2043188508e+00
1.2043186768e+00
1.2043184883e+00
1.2043182909e+00
1.2043180903e+00
1.2043178920e+00
1.2043177010e+00
1.2043175221e+00
1.2043173600e+00
1.2043172187e+00
1.2043171022e+00
1.2043170141e+00
1.2043169577e+00
1.2043169362e+00
1.2043169523e+00
1.2043170086e+00
1.2043171073e+00
1.2043172503e+00
1.2043177271e+00
1.2019090160e+00
1.2019217992e+00
1.2019361551e+00
1.2019574869e+00
1.2019856071e+00
1.2020202690e+00
1.2020611711e+00
1.2021079602e+00
1.2021602380e+00
1.2022175650e+00
1.2022794687e+00
1.2023454479e+00
1.2024149818e+00
1.2024875347e+00
1.2025625649e+00
1.2026395290e+00
1.2027178912e+00
1.2027971262e+00
1.2028767278e+00
1.2029562113e+00
1.2030351203e+00
1.2031130284e+00
1.2031895445e+00
1.2032643130e+00
1.2033370179e+00
1.2034073819e+00
1.2034751685e+00
1.2035401803e+00
1.2036022599e+00
1.2036612872e+00
1.2037171791e+00
1.2037698859e+00
1.2038193906e+00
1.2038657048e+00
1.2039088672e+00
1.2039489392e+00
1.2039860036e+00
1.2040201600e+00
1.2040515233e+00
1.2040802196e+00
1.2041063845e+00
1.2041301600e+00
1.2041516923e+00
1.2041711296e+00
1.2041886202e+00
1.2042043108e+00
1.2042183451e+00
1.2042308624e+00
1.2042419965e+00
1.2042518749e+00
1.2042606186e+00
1.2042683407e+00
1.2042751468e+00
1.2042811349e+00
1.2042863946e+00
1.2042910081e+00
1.2042950499e+00
1.2042985869e+00
1.2043016793e+00
1.2043043802e+00
1.2043067370e+00
1.2043087911e+00
1.2043105785e+00
1.2043121307e+00
1.2043134748e+00
1.2043146341e+00
1.2043156288e+00
1.2043164761e+00
1.2043171909e+00
1.2043177859e+00
1.2043182724e+00
1.2043186604e+00
1.2043189588e+00
1.2043191758e+00
1.2043193189e+00
1.2043193953e+00
1.2043194122e+00
1.2043193761e+00
1.2043192939e+00
1.2043191721e+00
1.2043190173e+00
1.2043188359e+00
1.2043186344e+00
1.2043184188e+00
1.2043181952e+00
1.2043179695e+00
1.2043177473e+00
1.2043175337e+00
1.2043173338e+00
1.2043171522e+00
1.2043169931e+00
1.2043168606e+00
1.2043167581e+00
1.2043166891e+00
1.2043166565e+00
1.2043166631e+00
1.2043167112e+00
1.2043168029e+00
1.2043169398e+00
1.2043173043e+00
1.2019867105e+00
1.2019992428e+00
1.2020131442e+00
1.2020337980e+00
1.2020610215e+00
1.2020945758e+00
1.2021341679e+00
1.2021794564e+00
1.2022300546e+00
1.2022855379e+00
1.2023454479e+00
1.2024093006e+00
1.2024765910e+00
1.2025468016e+00
1.2026194072e+00
1.2026938833e+00
1.2027697101e+00
1.2028463806e+00
1.2029234038e+00
1.2030003120e+00
1.2030766624e+00
1.2031520438e+00
1.2032260765e+00
1.2032984177e+00
1.2033687609e+00
1.2034368386e+00
1.2035024212e+00
1.2035653188e+00
1.2036253784e+00
1.2036824847e+00
1.2037365566e+00
1.2037875469e+00
1.2038354389e+00
1.2038802443e+00
1.2039220001e+00
1.2039607667e+00
1.2039966236e+00
1.2040296681e+00
1.2040600108e+00
1.2040877744e+00
1.2041130901e+00
1.2041360953e+00
1.2041569317e+00
1.2041757429e+00
1.2041926723e+00
1.2042078621e+00
1.2042214513e+00
1.2042335747e+00
1.2042443618e+00
1.2042539361e+00
1.2042624142e+00
1.2042699056e+00
1.2042765125e+00
1.2042823293e+00
1.2042874425e+00
1.2042919315e+00
1.2042958677e+00
1.2042993159e+00
1.2043023336e+00
1.2043049721e+00
1.2043072767e+00
1.2043092869e+00
1.2043110374e+00
1.2043125580e+00
1.2043138747e+00
1.2043150098e+00
1.2043159823e+00
1.2043168087e+00
1.2043175032e+00
1.2043180780e+00
1.2043185440e+00
1.2043189108e+00