# vtk DataFile Version 2.0
Blank
ASCII
DATASET STRUCTURED_GRID
DIMENSIONS 101 101 2
POINTS 20402 float
0.0000000000e+00 0.0000000000e+00 0.0000000000e+00
1.0000000000e-02 0.0000000000e+00 0.0000000000e+00
2.0000000000e-02 0.0000000000e+00 0.0000000000e+00
3.0000000000e-02 0.0000000000e+00 0.0000000000e+00
4.0000000000e-02 0.0000000000e+00 0.0000000000e+00
5.0000000000e-02 0.0000000000e+00 0.0000000000e+00
6.0000000000e-02 0.0000000000e+00 0.0000000000e+00
7.0000000000e-02 0.0000000000e+00 0.0000000000e+00
8.0000000000e-02 0.0000000000e+00 0.0000000000e+00
9.0000000000e-02 0.0000000000e+00 0.0000000000e+00
1.0000000000e-01 0.0000000000e+00 0.0000000000e+00
1.1000000000e-01 0.0000000000e+00 0.0000000000e+00
1.2000000000e-01 0.0000000000e+00 0.0000000000e+00
1.3000000000e-01 0.0000000000e+00 0.0000000000e+00
1.4000000000e-01 0.0000000000e+00 0.0000000000e+00
1.5000000000e-01 0.0000000000e+00 0.0000000000e+00
1.6000000000e-01 0.0000000000e+00 0.0000000000e+00
1.7000000000e-01 0.0000000000e+00 0.0000000000e+00
1.8000000000e-01 0.0000000000e+00 0.0000000000e+00
1.9000000000e-01 0.0000000000e+00 0.0000000000e+00
2.0000000000e-01 0.0000000000e+00 0.0000000000e+00
2.1000000000e-01 0.0000000000e+00 0.0000000000e+00
2.2000000000e-01 0.0000000000e+00 0.0000000000e+00
2.3000000000e-01 0.0000000000e+00 0.0000000000e+00
2.4000000000e-01 0.0000000000e+00 0.0000000000e+00
2.5000000000e-01 0.0000000000e+00 0.0000000000e+00
2.6000000000e-01 0.0000000000e+00 0.0000000000e+00
2.7000000000e-01 0.0000000000e+00 0.0000000000e+00
2.8000000000e-01 0.0000000000e+00 0.0000000000e+00
2.9000000000e-01 0.0000000000e+00 0.0000000000e+00
3.0000000000e-01 0.0000000000e+00 0.0000000000e+00
3.1000000000e-01 0.0000000000e+00 0.0000000000e+00
3.2000000000e-01 0.0000000000e+00 0.0000000000e+00
3.3000000000e-01 0.0000000000e+00 0.0000000000e+00
3.4000000000e-01 0.0000000000e+00 0.0000000000e+00
3.5000000000e-01 0.0000000000e+00 0.0000000000e+00
3.6000000000e-01 0.0000000000e+00 0.0000000000e+00
3.7000000000e-01 0.0000000000e+00 0.0000000000e+00
3.8000000000e-01 0.0000000000e+00 0.0000000000e+00
3.9000000000e-01 0.0000000000e+00 0.0000000000e+00
4.0000000000e-01 0.0000000000e+00 0.0000000000e+00
4.1000000000e-01 0.0000000000e+00 0.0000000000e+00
4.2000000000e-01 0.0000000000e+00 0.0000000000e+00
4.3000000000e-01 0.0000000000e+00 0.0000000000e+00
4.4000000000e-01 0.0000000000e+00 0.0000000000e+00
4.5000000000e-01 0.0000000000e+00 0.0000000000e+00
4.6000000000e-01 0.0000000000e+00 0.0000000000e+00
4.7000000000e-01 0.0000000000e+00 0.0000000000e+00
4.8000000000e-01 0.0000000000e+00 0.0000000000e+00
4.9000000000e-01 0.0000000000e+00 0.0000000000e+00
5.0000000000e-01 0.0000000000e+00 0.0000000000e+00
5.1000000000e-01 0.0000000000e+00 0.0000000000e+00
5.2000000000e-01 0.0000000000e+00 0.0000000000e+00
5.3000000000e-01 0.0000000000e+00 0.0000000000e+00
5.4000000000e-01 0.0000000000e+00 0.0000000000e+00
5.5000000000e-01 0.0000000000e+00 0.0000000000e+00
5.6000000000e-01 0.0000000000e+00 0.0000000000e+00
5.7000000000e-01 0.0000000000e+00 0.0000000000e+00
5.8000000000e-01 0.0000000000e+00 0.0000000000e+00
5.9000000000e-01 0.0000000000e+00 0.0000000000e+00
6.0000000000e-01 0.0000000000e+00 0.0000000000e+00
6.1000000000e-01 0.0000000000e+00 0.0000000000e+00
6.2000000000e-01 0.0000000000e+00 0.0000000000e+00
6.3000000000e-01 0.0000000000e+00 0.0000000000e+00
6.4000000000e-01 0.0000000000e+00 0.0000000000e+00
6.5000000000e-01 0.0000000000e+00 0.0000000000e+00
6.6000000000e-01 0.0000000000e+00 0.0000000000e+00
6.7000000000e-01 0.0000000000e+00 0.0000000000e+00
6.8000000000e-01 0.0000000000e+00 0.0000000000e+00
6.9000000000e-01 0.0000000000e+00 0.0000000000e+00
7.0000000000e-01 0.0000000000e+00 0.0000000000e+00
7.1000000000e-01 0.0000000000e+00 0.0000000000e+00
7.2000000000e-01 0.0000000000e+00 0.0000000000e+00
7.3000000000e-01 0.0000000000e+00 0.0000000000e+00
7.4000000000e-01 0.0000000000e+00 0.0000000000e+00
7.5000000000e-01 0.0000000000e+00 0.0000000000e+00
7.6000000000e-01 0.0000000000e+00 0.0000000000e+00
7.7000000000e-01 0.0000000000e+00 0.0000000000e+00
7.8000000000e-01 0.0000000000e+00 0.0000000000e+00
7.9000000000e-01 0.0000000000e+00 0.0000000000e+00
8.0000000000e-01 0.0000000000e+00 0.0000000000e+00
8.1000000000e-01 0.0000000000e+00 0.0000000000e+00
8.2000000000e-01 0.0000000000e+00 0.0000000000e+00
8.3000000000e-01 0.0000000000e+00 0.0000000000e+00
8.4000000000e-01 0.0000000000e+00 0.0000000000e+00
8.5000000000e-01 0.0000000000e+00 0.0000000000e+00
8.6000000000e-01 0.0000000000e+00 0.0000000000e+00
8.7000000000e-01 0.0000000000e+00 0.0000000000e+00
8.8000000000e-01 0.0000000000e+00 0.0000000000e+00
8.9000000000e-01 0.0000000000e+00 0.0000000000e+00
9.0000000000e-01 0.0000000000e+00 0.0000000000e+00
9.1000000000e-01 0.0000000000e+00 0.0000000000e+00
9.2000000000e-01 0.0000000000e+00 0.0000000000e+00
9.3000000000e-01 0.0000000000e+00 0.0000000000e+00
9.4000000000e-01 0.0000000000e+00 0.0000000000e+00
9.5000000000e-01 0.0000000000e+00 0.0000000000e+00
9.6000000000e-01 0.0000000000e+00 0.0000000000e+00
9.7000000000e-01 0.0000000000e+00 0.0000000000e+00
9.8000000000e-01 0.0000000000e+00 0.0000000000e+00
9.9000000000e-01 0.0000000000e+00 0.0000000000e+00
1.0000000000e+00 0.0000000000e+00 0.0000000000e+00
0.0000000000e+00 1.0000000000e-02 0.0000000000e+00
1.0000000000e-02 1.0000000000e-02 0.0000000000e+00
2.0000000000e-02 1.0000000000e-02 0.0000000000e+00
3.0000000000e-02 1.0000000000e-02 0.0000000000e+00
4.0000000000e-02 1.0000000000e-02 0.0000000000e+00
5.0000000000e-02 1.0000000000e-02 0.0000000000e+00
6.0000000000e-02 1.0000000000e-02 0.0000000000e+00
7.0000000000e-02 1.0000000000e-02 0.0000000000e+00
8.0000000000e-02 1.0000000000e-02 0.0000000000e+00
9.0000000000e-02 1.0000000000e-02 0.0000000000e+00
1.0000000000e-01 1.0000000000e-02 0.0000000000e+00
1.1000000000e-01 1.0000000000e-02 0.0000000000e+00
1.2000000000e-01 1.0000000000e-02 0.0000000000e+00
1.3000000000e-01 1.0000000000e-02 0.0000000000e+00
1.4000000000e-01 1.0000000000e-02 0.0000000000e+00
1.5000000000e-01 1.0000000000e-02 0.0000000000e+00
1.6000000000e-01 1.0000000000e-02 0.0000000000e+00
1.7000000000e-01 1.0000000000e-02 0.0000000000e+00
1.8000000000e-01 1.0000000000e-02 0.0000000000e+00
1.9000000000e-01 1.0000000000e-02 0.0000000000e+00
2.0000000000e-01 1.0000000000e-02 0.0000000000e+00
2.1000000000e-01 1.0000000000e-02 0.0000000000e+00
2.2000000000e-01 1.0000000000e-02 0.0000000000e+00
2.3000000000e-01 1.0000000000e-02 0.0000000000e+00
2.4000000000e-01 1.0000000000e-02 0.0000000000e+00
2.5000000000e-01 1.0000000000e-02 0.0000000000e+00
2.6000000000e-01 1.0000000000e-02 0.0000000000e+00
2.7000000000e-01 1.0000000000e-02 0.0000000000e+00
2.8000000000e-01 1.0000000000e-02 0.0000000000e+00
2.9000000000e-01 1.0000000000e-02 0.0000000000e+00
3.0000000000e-01 1.0000000000e-02 0.0000000000e+00
3.1000000000e-01 1.0000000000e-02 0.0000000000e+00
3.2000000000e-01 1.0000000000e-02 0.0000000000e+00
3.3000000000e-01 1.0000000000e-02 0.0000000000e+00
3.4000000000e-01 1.0000000000e-02 0.0000000000e+00
3.5000000000e-01 1.0000000000e-02 0.0000000000e+00
3.6000000000e-01 1.0000000000e-02 0.0000000000e+00
3.7000000000e-01 1.0000000000e-02 0.0000000000e+00
3.8000000000e-01 1.0000000000e-02 0.0000000000e+00
3.9000000000e-01 1.0000000000e-02 0.0000000000e+00
4.0000000000e-01 1.0000000000e-02 0.0000000000e+00
4.1000000000e-01 1.0000000000e-02 0.0000000000e+00
4.2000000000e-01 1.0000000000e-02 0.0000000000e+00
4.3000000000e-01 1.0000000000e-02 0.0000000000e+00
4.4000000000e-01 1.0000000000e-02 0.0000000000e+00
4.5000000000e-01 1.0000000000e-02 0.0000000000e+00
4.6000000000e-01 1.0000000000e-02 0.0000000000e+00
4.7000000000e-01 1.0000000000e-02 0.0000000000e+00
4.8000000000e-01 1.0000000000e-02 0.0000000000e+00
4.9000000000e-01 1.0000000000e-02 0.0000000000e+00
5.0000000000e-01 1.0000000000e-02 0.0000000000e+00
5.1000000000e-01 1.0000000000e-02 0.0000000000e+00
5.2000000000e-01 1.0000000000e-02 0.0000000000e+00
5.3000000000e-01 1.0000000000e-02 0.0000000000e+00
5.4000000000e-01 1.0000000000e-02 0.0000000000e+00
5.5000000000e-01 1.0000000000e-02 0.0000000000e+00
5.6000000000e-01 1.0000000000e-02 0.0000000000e+00
5.7000000000e-01 1.0000000000e-02 0.0000000000e+00
5.8000000000e-01 1.0000000000e-02 0.0000000000e+00
5.9000000000e-01 1.0000000000e-02 0.0000000000e+00
6.0000000000e-01 1.0000000000e-02 0.0000000000e+00
6.1000000000e-01 1.0000000000e-02 0.0000000000e+00
6.2000000000e-01 1.0000000000e-02 0.0000000000e+00
6.3000000000e-01 1.0000000000e-02 0.0000000000e+00
6.4000000000e-01 1.0000000000e-02 0.0000000000e+00
6.5000000000e-01 1.0000000000e-02 0.0000000000e+00
6.6000000000e-01 1.0000000000e-02 0.0000000000e+00
6.7000000000e-01 1.0000000000e-02 0.0000000000e+00
6.8000000000e-01 1.0000000000e-02 0.0000000000e+00
6.9000000000e-01 1.0000000000e-02 0.0000000000e+00
7.0000000000e-01 1.0000000000e-02 0.0000000000e+00
7.1000000000e-01 1.0000000000e-02 0.0000000000e+00
7.2000000000e-01 1.0000000000e-02 0.0000000000e+00
7.3000000000e-01 1.0000000000e-02 0.0000000000e+00
7.4000000000e-01 1.0000000000e-02 0.0000000000e+00
7.5000000000e-01 1.0000000000e-02 0.0000000000e+00
7.6000000000e-01 1.0000000000e-02 0.0000000000e+00
7.7000000000e-01 1.0000000000e-02 0.0000000000e+00
7.8000000000e-01 1.0000000000e-02 0.0000000000e+00
7.9000000000e-01 1.0000000000e-02 0.0000000000e+00
8.0000000000e-01 1.0000000000e-02 0.0000000000e+00
8.1000000000e-01 1.0000000000e-02 0.0000000000e+00
8.2000000000e-01 1.0000000000e-02 0.0000000000e+00
8.3000000000e-01 1.0000000000e-02 0.0000000000e+00
8.4000000000e-01 1.0000000000e-02 0.0000000000e+00
8.5000000000e-01 1.0000000000e-02 0.0000000000e+00
8.6000000000e-01 1.0000000000e-02 0.0000000000e+00
8.7000000000e-01 1.0000000000e-02 0.0000000000e+00
8.8000000000e-01 1.0000000000e-02 0.0000000000e+00
8.9000000000e-01 1.0000000000e-02 0.0000000000e+00
9.0000000000e-01 1.0000000000e-02 0.0000000000e+00
9.1000000000e-01 1.0000000000e-02 0.0000000000e+00
9.2000000000e-01 1.0000000000e-02 0.0000000000e+00
[...]
CELL_DATA 10000

SCALARS massDensity float
LOOKUP_TABLE default
1.2002683371e+00
1.2002583108e+00
1.2002980650e+00
1.2003541332e+00
1.2004262273e+00
1.2005137452e+00
1.2006157894e+00
1.2007312105e+00
1.2008586584e+00
1.2009966281e+00
1.2011435054e+00
1.2012976064e+00
1.2014572174e+00
1.2016206293e+00
1.2017861719e+00
1.2019522419e+00
1.2021173301e+00
1.2022800417e+00
1.2024391153e+00
1.2025934339e+00
1.2027420358e+00
1.2028841169e+00
1.2030190327e+00
1.2031462936e+00
1.2032655601e+00
1.2033766322e+00
1.2034794396e+00
1.2035740273e+00
1.2036605433e+00
1.2037392228e+00
1.2038103742e+00
1.2038743644e+00
1.2039316053e+00
1.2039825406e+00
1.2040276343e+00
1.2040673598e+00
1.2041021913e+00
1.2041325952e+00
1.2041590242e+00
1.2041819120e+00
1.2042016693e+00
1.2042186809e+00
1.2042333039e+00
1.2042458671e+00
1.2042566701e+00
1.2042659845e+00
1.2042740540e+00
1.2042810961e+00
1.2042873038e+00
1.2042928469e+00
1.2042978739e+00
1.2043025141e+00
1.2043068793e+00
1.2043110654e+00
1.2043151543e+00
1.2043192158e+00
1.2043233081e+00
1.2043274802e+00
1.2043317722e+00
1.2043362170e+00
1.2043408405e+00
1.2043456634e+00
1.2043507005e+00
1.2043559627e+00
1.2043614559e+00
1.2043671831e+00
1.2043731432e+00
1.2043793322e+00
1.2043857428e+00
1.2043923653e+00
1.2043991866e+00
1.2044061917e+00
1.2044133621e+00
1.2044206779e+00
1.2044281154e+00
1.2044356498e+00
1.2044432525e+00
1.2044508936e+00
1.2044585397e+00
1.2044661557e+00
1.2044737030e+00
1.2044811413e+00
1.2044884266e+00
1.2044955125e+00
1.2045023486e+00
1.2045088813e+00
1.2045150518e+00
1.2045207962e+00
1.2045260427e+00
1.2045307108e+00
1.2045347059e+00
1.2045379168e+00
1.2045402068e+00
1.2045414066e+00
1.2045413007e+00
1.2045396134e+00
1.2045359907e+00
1.2045299925e+00
1.2045211266e+00
1.2045578759e+00
1.2002583108e+00
1.2002429210e+00
1.2002799764e+00
1.2003345911e+00
1.2004060186e+00
1.2004933659e+00
1.2005955530e+00
1.2007113204e+00
1.2008392483e+00
1.2009777910e+00
1.2011253071e+00
1.2012800983e+00
1.2014404401e+00
1.2016046188e+00
1.2017709592e+00
1.2019378560e+00
1.2021037958e+00
1.2022673814e+00
1.2024273456e+00
1.2025825677e+00
1.2027320785e+00
1.2028750683e+00
1.2030108843e+00
1.2031390305e+00
1.2032591589e+00
1.2033710634e+00
1.2034746660e+00
1.2035700066e+00
1.2036572272e+00
1.2037365591e+00
1.2038083068e+00
1.2038728348e+00
1.2039305529e+00
1.2039819038e+00
1.2040273506e+00
1.2040673670e+00
1.2041024269e+00
1.2041329976e+00
1.2041595320e+00
1.2041824645e+00
1.2042022061e+00
1.2042191420e+00
1.2042336296e+00
1.2042459973e+00
1.2042565447e+00
1.2042655426e+00
1.2042732341e+00
1.2042798359e+00
1.2042855397e+00
1.2042905142e+00
1.2042949068e+00
1.2042988454e+00
1.2043024406e+00
1.2043057872e+00
1.2043089662e+00
1.2043120462e+00
1.2043150851e+00
1.2043181312e+00
1.2043212248e+00
1.2043243987e+00
1.2043276799e+00
1.2043310895e+00
1.2043346443e+00
1.2043383566e+00
1.2043422355e+00
1.2043462861e+00
1.2043505116e+00
1.2043549116e+00
1.2043594840e+00
1.2043642236e+00
1.2043691242e+00
1.2043741762e+00
1.2043793695e+00
1.2043846904e+00
1.2043901249e+00
1.2043956557e+00
1.2044012647e+00
1.2044069307e+00
1.2044126317e+00
1.2044183425e+00
1.2044240367e+00
1.2044296848e+00
1.2044352559e+00
1.2044407154e+00
1.2044460273e+00
1.2044511512e+00
1.2044560447e+00
1.2044606600e+00
1.2044649458e+00
1.2044688439e+00
1.2044722900e+00
1.2044752102e+00
1.2044775211e+00
1.2044791263e+00
1.2044799189e+00
1.2044797823e+00
1.2044786057e+00
1.2044763172e+00
1.2044729717e+00
1.2045194980e+00
1.2002980650e+00
1.2002799764e+00
1.2003153943e+00
1.2003687125e+00
1.2004390452e+00
1.2005253930e+00
1.2006266089e+00
1.2007413904e+00
1.2008682973e+00
1.2010057721e+00
1.2011521738e+00
1.2013058054e+00
1.2014649511e+00
1.2016279037e+00
1.2017929992e+00
1.2019586403e+00
1.2021233249e+00
1.2022856631e+00
1.2024443979e+00
1.2025984144e+00
1.2027467519e+00
1.2028886048e+00
1.2030233268e+00
1.2031504246e+00
1.2032695549e+00
1.2033805125e+00
1.2034832226e+00
1.2035777250e+00
1.2036641632e+00
1.2037427676e+00
1.2038138426e+00
1.2038777511e+00
1.2039349017e+00
1.2039857346e+00
1.2040307110e+00
1.2040703015e+00
1.2041049774e+00
1.2041352022e+00
1.2041614262e+00
1.2041840799e+00
1.2042035709e+00
1.2042202810e+00
1.2042345642e+00
1.2042467455e+00
1.2042571213e+00
1.2042659596e+00
1.2042735006e+00
1.2042799583e+00
1.2042855222e+00
1.2042903588e+00
1.2042946134e+00
1.2042984126e+00
1.2043018651e+00
1.2043050647e+00
1.2043080911e+00
1.2043110122e+00
1.2043138849e+00
1.2043167572e+00
1.2043196688e+00
1.2043226526e+00
1.2043257349e+00
1.2043289375e+00
1.2043322768e+00
1.2043357661e+00
1.2043394142e+00
1.2043432278e+00
1.2043472098e+00
1.2043513618e+00
1.2043556817e+00
1.2043601667e+00
1.2043648106e+00
1.2043696067e+00
1.2043745450e+00
1.2043796151e+00
1.2043848033e+00
1.2043900956e+00
1.2043954745e+00
1.2044009222e+00
1.2044064175e+00
1.2044119384e+00
1.2044174596e+00
1.2044229548e+00
1.2044283940e+00
1.2044337461e+00
1.2044389761e+00
1.2044440475e+00
1.2044489194e+00
1.2044535487e+00
1.2044578878e+00
1.2044618860e+00
1.2044654875e+00
1.2044686336e+00
1.2044712610e+00
1.2044733067e+00
1.2044747115e+00
1.2044754328e+00
1.2044754662e+00
1.2044748910e+00
1.2044739527e+00
1.2045251070e+00
1.2003541332e+00
1.2003345911e+00
1.2003687125e+00
1.2004207366e+00
1.2004897626e+00
1.2005747622e+00
1.2006745598e+00
1.2007878381e+00
1.2009131477e+00
1.2010489346e+00
1.2011935622e+00
1.2013453474e+00
1.2015025860e+00
1.2016635889e+00
1.2018267060e+00
1.2019903587e+00
1.2021530585e+00
1.2023134326e+00
1.2024702358e+00
1.2026223676e+00
1.2027688761e+00
1.2029089673e+00
1.2030420008e+00
1.2031674912e+00
1.2032850986e+00
1.2033946229e+00
1.2034959899e+00
1.2035892418e+00
1.2036745208e+00
1.2037520573e+00
1.2038221529e+00
1.2038851685e+00
1.2039415085e+00
1.2039916098e+00
1.2040359286e+00
1.2040749311e+00
1.2041090829e+00
1.2041388430e+00
1.2041646553e+00
1.2041869456e+00
1.2042061158e+00
1.2042225425e+00
1.2042365745e+00
1.2042485322e+00
1.2042587072e+00
1.2042673631e+00
1.2042747363e+00
1.2042810372e+00
1.2042864517e+00
1.2042911434e+00
1.2042952551e+00
1.2042989105e+00
1.2043022166e+00
1.2043052651e+00
1.2043081343e+00
1.2043108904e+00
1.2043135896e+00
1.2043162786e+00
1.2043189966e+00
1.2043217756e+00
1.2043246421e+00
1.2043276170e+00
1.2043307174e+00
1.2043339560e+00
1.2043373429e+00
1.2043408841e+00
1.2043445845e+00
1.2043484453e+00
1.2043524666e+00
1.2043566457e+00
1.2043609789e+00
1.2043654599e+00
1.2043700817e+00
1.2043748344e+00
1.2043797077e+00
1.2043846882e+00
1.2043897624e+00
1.2043949133e+00
1.2044001235e+00
1.2044053723e+00
1.2044106385e+00
1.2044158970e+00
1.2044211222e+00
1.2044262848e+00
1.2044313541e+00
1.2044362961e+00
1.2044410751e+00
1.2044456520e+00
1.2044499862e+00
1.2044540340e+00
1.2044577510e+00
1.2044610917e+00
1.2044640134e+00
1.2044664788e+00
1.2044684647e+00
1.2044699731e+00
1.2044710538e+00
1.2044718363e+00
1.2044725817e+00
1.2045261113e+00
1.2004262273e+00
1.2004060186e+00
1.2004390452e+00
1.2004897626e+00
1.2005573058e+00
1.2006406536e+00
1.2007386351e+00
1.2008499343e+00
1.2009731126e+00
1.2011066257e+00
1.2012488568e+00
1.2013981396e+00
1.2015527947e+00
1.2017111532e+00
1.2018715913e+00
1.2020325506e+00
1.2021925675e+00
1.2023502871e+00
1.2025044861e+00
1.2026540784e+00
1.2027981298e+00
1.2029358566e+00
1.2030666312e+00
1.2031899749e+00
1.2033055561e+00
1.2034131772e+00
1.2035127685e+00
1.2036043716e+00
1.2036881295e+00
1.2037642692e+00
1.2038330903e+00
1.2038949484e+00
1.2039502438e+00
1.2039994065e+00
1.2040428872e+00
1.2040811442e+00
1.2041146370e+00
1.2041438161e+00
1.2041691190e+00
1.2041909634e+00
1.2042097445e+00
1.2042258315e+00
1.2042395669e+00
1.2042512643e+00
1.2042612098e+00
1.2042696613e+00
1.2042768499e+00
1.2042829814e+00
1.2042882376e+00
1.2042927782e+00
1.2042967422e+00
1.2043002507e+00
1.2043034077e+00
1.2043063026e+00
1.2043090115e+00
1.2043115991e+00
1.2043141196e+00
1.2043166189e+00
1.2043191346e+00
1.2043216985e+00
1.2043243357e+00
1.2043270676e+00
1.2043299102e+00
1.2043328770e+00
1.2043359773e+00
1.2043392187e+00
1.2043426053e+00
1.2043461404e+00
1.2043498239e+00
1.2043536554e+00
1.2043576316e+00
1.2043617488e+00
1.2043660005e+00
1.2043703802e+00
1.2043748783e+00
1.2043794853e+00
1.2043841885e+00
1.2043889752e+00
1.2043938294e+00
1.2043987346e+00
1.2044036713e+00
1.2044086193e+00
1.2044135549e+00
1.2044184538e+00
1.2044232881e+00
1.2044280293e+00
1.2044326456e+00
1.2044371047e+00
1.2044413715e+00
1.2044454117e+00
1.2044491902e+00
1.2044526751e+00
1.2044558384e+00
1.2044586630e+00
1.2044611471e+00
1.2044633167e+00
1.2044652388e+00
1.2044670435e+00
1.2044689453e+00
1.2045231894e+00
1.2005137452e+00
1.2004933659e+00
1.2005253930e+00
1.2005747622e+00
1.2006406536e+00
1.2007220765e+00
1.2008178783e+00
1.2009267649e+00
1.2010473156e+00
1.2011780127e+00
1.2013172623e+00
1.2014634298e+00
1.2016148622e+00
1.2017699244e+00
1.2019270195e+00
1.2020846221e+00
1.2022412933e+00
1.2023957081e+00
1.2025466638e+00
1.2026930993e+00
1.2028340961e+00
1.2029688895e+00
1.2030968630e+00
1.2032175506e+00
1.2033306263e+00
1.2034359004e+00
1.2035333041e+00
1.2036228816e+00
1.2037047732e+00
1.2037792046e+00
1.2038464697e+00
1.2039069196e+00
1.2039609466e+00
1.2040089742e+00
1.2040514438e+00
1.2040888057e+00
1.2041215094e+00
1.2041499970e+00
1.2041746960e+00
1.2041960154e+00
1.2042143411e+00
1.2042300341e+00
1.2042434283e+00
1.2042548301e+00
1.2042645178e+00
1.2042727429e+00
1.2042797303e+00
1.2042856801e+00
1.2042907691e+00
1.2042951521e+00
1.2042989644e+00
1.2043023230e+00
1.2043053290e+00
1.2043080686e+00
1.2043106156e+00
1.2043130323e+00
1.2043153714e+00
1.2043176765e+00
1.2043199848e+00
1.2043223260e+00
1.2043247253e+00
1.2043272025e+00
1.2043297742e+00
1.2043324527e+00
1.2043352483e+00
1.2043381679e+00
1.2043412171e+00
1.2043443987e+00
1.2043477149e+00
1.2043511649e+00
1.2043547482e+00
1.2043584614e+00
1.2043623011e+00
1.2043662614e+00
1.2043703365e+00
1.2043745177e+00
1.2043787965e+00
1.2043831615e+00
1.2043876011e+00
1.2043921008e+00
1.2043966459e+00
1.2044012182e+00
1.2044057994e+00
1.2044103679e+00
1.2044149016e+00
1.2044193757e+00
1.2044237648e+00
1.2044280414e+00
1.2044321788e+00
1.2044361491e+00
1.2044399274e+00
1.2044434914e+00
1.2044468260e+00
1.2044499256e+00
1.2044528012e+00
1.2044554863e+00
1.2044580475e+00
1.2044605931e+00
1.2044632810e+00
1.2045170041e+00
1.2006157894e+00
1.2005955530e+00
1.2006266089e+00
1.2006745598e+00
1.2007386351e+00
1.2008178783e+00
1.2009111710e+00
1.2010172463e+00
1.2011347178e+00
1.2012620973e+00
1.2013978292e+00
1.2015403115e+00
1.2016879322e+00
1.2018390899e+00
1.2019922285e+00
1.2021458545e+00
1.2022985667e+00
1.2024490680e+00
1.2025961882e+00
1.2027388886e+00
1.2028762768e+00
1.2030076041e+00
1.2031322727e+00
1.2032498267e+00
1.2033599520e+00
1.2034624627e+00
1.2035572956e+00
1.2036444938e+00
1.2037241979e+00
1.2037966283e+00
1.2038620748e+00
1.2039208803e+00
1.2039734301e+00
1.2040201371e+00
1.2040614337e+00
1.2040977586e+00
1.2041295513e+00
1.2041572421e+00
1.2041812480e+00
1.2042019667e+00
1.2042197740e+00
1.2042350206e+00
1.2042480309e+00
1.2042591022e+00
1.2042685046e+00
1.2042764816e+00
1.2042832512e+00
1.2042890069e+00
1.2042939195e+00
1.2042981387e+00
1.2043017948e+00
1.2043050008e+00
1.2043078539e+00
1.2043104372e+00
1.2043128213e+00
1.2043150663e+00
1.2043172222e+00
1.2043193315e+00
1.2043214289e+00
1.2043235437e+00
1.2043256992e+00
1.2043279152e+00
1.2043302067e+00
1.2043325869e+00
1.2043350647e+00
1.2043376484e+00
1.2043403427e+00
1.2043431522e+00
1.2043460787e+00
1.2043491239e+00
1.2043522871e+00
1.2043555677e+00
1.2043589630e+00
1.2043624702e+00
1.2043660844e+00
1.2043698009e+00
1.2043736125e+00
1.2043775119e+00
1.2043814894e+00
1.2043855353e+00
1.2043896368e+00
1.2043937812e+00
1.2043979529e+00
1.2044021358e+00
1.2044063114e+00
1.2044104610e+00
1.2044145636e+00
1.2044185989e+00
1.2044225454e+00
1.2044263838e+00
1.2044300959e+00
1.2044336686e+00
1.2044370940e+00
1.2044403752e+00
1.2044435272e+00
1.2044465843e+00
1.2044496026e+00
1.2044526650e+00
1.2044558780e+00
1.2045081433e+00
1.2007312105e+00
1.2007113204e+00
1.2007413904e+00
1.2007878381e+00
1.2008499343e+00
1.2009267649e+00
1.2010172463e+00
1.2011201528e+00
1.2012341333e+00
1.2013577441e+00
1.2014894679e+00
1.2016277504e+00
1.2017710194e+00
1.2019177217e+00
1.2020663401e+00
1.2022154267e+00
1.2023636156e+00
1.2025096502e+00
1.2026523898e+00
1.2027908290e+00
1.2029240981e+00
1.2030514738e+00
1.2031723735e+00
1.2032863586e+00
1.2033931228e+00
1.2034924900e+00
1.2035843984e+00
1.2036688942e+00
1.2037461139e+00
1.2038162753e+00
1.2038796604e+00
1.2039366052e+00
1.2039874838e+00
1.2040326998e+00
1.2040726726e+00
1.2041078299e+00
1.2041385975e+00
1.2041653938e+00
1.2041886227e+00
1.2042086700e+00
1.2042258992e+00
1.2042406498e+00
1.2042532352e+00
1.2042639427e+00
1.2042730329e+00
1.2042807406e+00
1.2042872757e+00
1.2042928245e+00
1.2042975513e+00
1.2043015998e+00
1.2043050952e+00
1.2043081456e+00
1.2043108441e+00
1.2043132701e+00
1.2043154911e+00
1.2043175640e+00
1.2043195370e+00
1.2043214498e+00
1.2043233360e+00
1.2043252225e+00
1.2043271324e+00
1.2043290836e+00
1.2043310913e+00
1.2043331672e+00
1.2043353211e+00
1.2043375601e+00
1.2043398905e+00
1.2043423160e+00
1.2043448404e+00
1.2043474651e+00
1.2043501920e+00
1.2043530206e+00
1.2043559512e+00
1.2043589817e+00
1.2043621106e+00
1.2043653344e+00
1.2043686498e+00
1.2043720512e+00
1.2043755334e+00
1.2043790884e+00
1.2043827088e+00
1.2043863842e+00
1.2043901044e+00
1.2043938566e+00
1.2043976281e+00
1.2044014041e+00
1.2044051702e+00
1.2044089105e+00
1.2044126109e+00
1.2044162573e+00
1.2044198389e+00
1.2044233480e+00
1.2044267835e+00
1.2044301513e+00
1.2044334686e+00
1.2044367647e+00
1.2044400842e+00
1.2044434855e+00
1.2044470371e+00
1.2044971186e+00
1.2008586584e+00
1.2008392483e+00
1.2008682973e+00
1.2009131477e+00
1.2009731126e+00
1.2010473156e+00
1.2011347178e+00
1.2012341333e+00
1.2013442598e+00
1.2014636965e+00
1.2015909792e+00
1.2017245988e+00
1.2018630378e+00
1.2020047883e+00
1.2021483861e+00
1.2022924256e+00
1.2024355894e+00
1.2025766576e+00
1.2027145309e+00
1.2028482335e+00
1.2029769284e+00
1.2030999136e+00
1.2032166301e+00
1.2033266522e+00
1.2034296886e+00
1.2035255680e+00
1.2036142356e+00
1.2036957359e+00
1.2037702053e+00
1.2038378546e+00
1.2038989602e+00
1.2039538472e+00
1.2040028804e+00
1.2040464497e+00
1.2040849628e+00
1.2041188325e+00
1.2041484715e+00
1.2041742834e+00
1.2041966586e+00
1.2042159687e+00
1.2042325646e+00
1.2042467726e+00
1.2042588946e+00
1.2042692064e+00
1.2042779585e+00
1.2042853761e+00
1.2042916603e+00
1.2042969896e+00
1.2043015209e+00
1.2043053918e+00
1.2043087214e+00
1.2043116131e+00
1.2043141550e+00
1.2043164230e+00
1.2043184807e+00
1.2043203825e+00
1.2043221732e+00
1.2043238910e+00
1.2043255667e+00
1.2043272266e+00
1.2043288913e+00
1.2043305787e+00
1.2043323022e+00
1.2043340737e+00
1.2043359020e+00
1.2043377950e+00
1.2043397579e+00
1.2043417963e+00
1.2043439131e+00
1.2043461120e+00
1.2043483946e+00
1.2043507633e+00
1.2043532184e+00
1.2043557611e+00
1.2043583908e+00
1.2043611074e+00
1.2043639090e+00
1.2043667940e+00
1.2043697591e+00
1.2043728009e+00
1.2043759140e+00
1.2043790934e+00
1.2043823314e+00
1.2043856210e+00
1.2043889526e+00
1.2043923176e+00
1.2043957054e+00
1.2043991067e+00
1.2044025116e+00
1.2044059125e+00
1.2044093032e+00
1.2044126815e+00
1.2044160492e+00
1.2044194152e+00
1.2044227947e+00
1.2044262126e+00
1.2044297012e+00
1.2044333008e+00
1.2044370514e+00
1.2044843813e+00
1.2009966281e+00
1.2009777910e+00
1.2010057721e+00
1.2010489346e+00
1.2011066257e+00
1.2011780127e+00
1.2012620973e+00
1.2013577441e+00
1.2014636965e+00
1.2015786102e+00
1.2017010704e+00
1.2018296276e+00
1.2019628150e+00
1.2020991843e+00
1.2022373199e+00
1.2023758723e+00
1.2025135678e+00
1.2026492360e+00
1.2027818140e+00
1.2029103667e+00
1.2030340848e+00
1.2031522975e+00
1.2032644642e+00
1.2033701802e+00
1.2034691637e+00
1.2035612552e+00
1.2036464015e+00
1.2037246503e+00
1.2037961332e+00
1.2038610575e+00
1.2039196896e+00
1.2039723460e+00
1.2040193781e+00
1.2040611639e+00
1.2040980953e+00
1.2041305714e+00
1.2041589885e+00
1.2041837358e+00
1.2042051877e+00
1.2042237016e+00
1.2042396134e+00
1.2042532364e+00
1.2042648591e+00
1.2042747458e+00
1.2042831353e+00
1.2042902429e+00
1.2042962603e+00
1.2043013574e+00
1.2043056837e+00
1.2043093695e+00
1.2043125284e+00
1.2043152577e+00
1.2043176414e+00
1.2043197505e+00
1.2043216456e+00
1.2043233771e+00
1.2043249879e+00
1.2043265129e+00
1.2043279816e+00
1.2043294177e+00
1.2043308414e+00
1.2043322683e+00
1.2043337121e+00
1.2043351829e+00
1.2043366901e+00
1.2043382403e+00
1.2043398401e+00
1.2043414939e+00
1.2043432067e+00
1.2043449815e+00
1.2043468223e+00
1.2043487313e+00
1.2043507117e+00
1.2043527651e+00
1.2043548940e+00
1.2043570994e+00
1.2043593828e+00
1.2043617444e+00
1.2043641845e+00
1.2043667020e+00
1.2043692960e+00
1.2043719637e+00
1.2043747027e+00
1.2043775086e+00
1.2043803775e+00
1.2043833040e+00
1.2043862834e+00
1.2043893100e+00
1.2043923798e+00
1.2043954890e+00
1.2043986364e+00
1.2044018230e+00
1.2044050538e+00
1.2044083376e+00
1.2044116890e+00
1.2044151269e+00
1.2044186752e+00
1.2044223590e+00
1.2044262012e+00
1.2044703347e+00
1.2011435054e+00
1.2011253071e+00
1.2011521738e+00
1.2011935622e+00
1.2012488568e+00
1.2013172623e+00
1.2013978292e+00
1.2014894679e+00
1.2015909792e+00
1.2017010704e+00
1.2018183894e+00
1.2019415414e+00
1.2020691243e+00
1.2021997437e+00
1.2023320467e+00
1.2024647339e+00
1.2025965886e+00
1.2027264837e+00
1.2028534050e+00
1.2029764520e+00
1.2030948540e+00
1.2032079651e+00
1.2033152724e+00
1.2034163862e+00
1.2035110422e+00
1.2035990866e+00
1.2036804740e+00
1.2037552501e+00
1.2038235460e+00
1.2038855610e+00
1.2039415546e+00
1.2039918304e+00
1.2040367286e+00
1.2040766114e+00
1.2041118566e+00
1.2041428462e+00
1.2041699611e+00
1.2041935731e+00
1.2042140410e+00
1.2042317060e+00
1.2042468891e+00
1.2042598887e+00
1.2042709801e+00
1.2042804144e+00
1.2042884190e+00
1.2042951981e+00
1.2043009336e+00
1.2043057866e+00
1.2043098982e+00
1.2043133921e+00
1.2043163748e+00
1.2043189387e+00
1.2043211621e+00
1.2043231122e+00
1.2043248452e+00
1.2043264088e+00
1.2043278422e+00
1.2043291786e+00
1.2043304447e+00
1.2043316631e+00
1.2043328516e+00
1.2043340256e+00
1.2043351966e+00
1.2043363754e+00
1.2043375696e+00
1.2043387868e+00
1.2043400323e+00
1.2043413121e+00
1.2043426303e+00
1.2043439917e+00
1.2043454001e+00
1.2043468599e+00
1.2043483745e+00
1.2043499482e+00
1.2043515840e+00
1.2043532862e+00
1.2043550572e+00
1.2043569008e+00
1.2043588189e+00
1.2043608143e+00
1.2043628881e+00
1.2043650420e+00
1.2043672758e+00
1.2043695902e+00
1.2043719840e+00
1.2043744569e+00
1.2043770073e+00
1.2043796350e+00
1.2043823390e+00
1.2043851204e+00
1.2043879809e+00
1.2043909249e+00
1.2043939587e+00
1.2043970921e+00
1.2044003373e+00
1.2044037099e+00
1.2044072261e+00
1.2044109021e+00
1.2044147484e+00
1.2044553451e+00
1.2012976064e+00
1.2012800983e+00
1.2013058054e+00
1.2013453474e+00
1.2013981396e+00
1.2014634298e+00
1.2015403115e+00
1.2016277504e+00
1.2017245988e+00
1.2018296276e+00
1.2019415414e+00
1.2020590133e+00
1.2021806990e+00
1.2023052720e+00
1.2024314351e+00
1.2025579521e+00
1.2026836566e+00
1.2028074773e+00
1.2029284415e+00
1.2030456949e+00
1.2031584985e+00
1.2032662411e+00
1.2033684312e+00
1.2034647026e+00
1.2035548019e+00
1.2036385884e+00
1.2037160185e+00
1.2037871414e+00
1.2038520829e+00
1.2039110379e+00
1.2039642545e+00
1.2040120268e+00
1.2040546794e+00
1.2040925609e+00
1.2041260316e+00
1.2041554577e+00
1.2041812019e+00
1.2042036193e+00
1.2042230513e+00
1.2042398228e+00
1.2042542384e+00
1.2042665817e+00
1.2042771135e+00
1.2042860717e+00
1.2042936712e+00
1.2043001052e+00
1.2043055452e+00
1.2043101428e+00
1.2043140314e+00
1.2043173265e+00
1.2043201286e+00
1.2043225238e+00
1.2043245858e+00
1.2043263767e+00
1.2043279493e+00
1.2043293474e+00
1.2043306078e+00
1.2043317605e+00
1.2043328308e+00
1.2043338386e+00
1.2043348011e+00
1.2043357314e+00
1.2043366413e+00
1.2043375394e+00
1.2043384342e+00
1.2043393316e+00
1.2043402383e+00
1.2043411591e+00
1.2043420995e+00
1.2043430639e+00
1.2043440579e+00
1.2043450856e+00