# vtk DataFile Version 2.0
Blank
ASCII
DATASET STRUCTURED_GRID
DIMENSIONS 101 101 2
POINTS 20402 float
0.0000000000e+00 0.0000000000e+00 0.0000000000e+00
1.0000000000e-02 0.0000000000e+00 0.0000000000e+00
2.0000000000e-02 0.0000000000e+00 0.0000000000e+00
3.0000000000e-02 0.0000000000e+00 0.0000000000e+00
4.0000000000e-02 0.0000000000e+00 0.0000000000e+00
5.0000000000e-02 0.0000000000e+00 0.0000000000e+00
6.0000000000e-02 0.0000000000e+00 0.0000000000e+00
7.0000000000e-02 0.0000000000e+00 0.0000000000e+00
8.0000000000e-02 0.0000000000e+00 0.0000000000e+00
9.0000000000e-02 0.0000000000e+00 0.0000000000e+00
1.0000000000e-01 0.0000000000e+00 0.0000000000e+00
1.1000000000e-01 0.0000000000e+00 0.0000000000e+00
1.2000000000e-01 0.0000000000e+00 0.0000000000e+00
1.3000000000e-01 0.0000000000e+00 0.0000000000e+00
1.4000000000e-01 0.0000000000e+00 0.0000000000e+00
1.5000000000e-01 0.0000000000e+00 0.0000000000e+00
1.6000000000e-01 0.0000000000e+00 0.0000000000e+00
1.7000000000e-01 0.0000000000e+00 0.0000000000e+00
1.8000000000e-01 0.0000000000e+00 0.0000000000e+00
1.9000000000e-01 0.0000000000e+00 0.0000000000e+00
2.0000000000e-01 0.0000000000e+00 0.0000000000e+00
2.1000000000e-01 0.0000000000e+00 0.0000000000e+00
2.2000000000e-01 0.0000000000e+00 0.0000000000e+00
2.3000000000e-01 0.0000000000e+00 0.0000000000e+00
2.4000000000e-01 0.0000000000e+00 0.0000000000e+00
2.5000000000e-01 0.0000000000e+00 0.0000000000e+00
2.6000000000e-01 0.0000000000e+00 0.0000000000e+00
2.7000000000e-01 0.0000000000e+00 0.0000000000e+00
2.8000000000e-01 0.0000000000e+00 0.0000000000e+00
2.9000000000e-01 0.0000000000e+00 0.0000000000e+00
3.0000000000e-01 0.0000000000e+00 0.0000000000e+00
3.1000000000e-01 0.0000000000e+00 0.0000000000e+00
3.2000000000e-01 0.0000000000e+00 0.0000000000e+00
3.3000000000e-01 0.0000000000e+00 0.0000000000e+00
3.4000000000e-01 0.0000000000e+00 0.0000000000e+00
3.5000000000e-01 0.0000000000e+00 0.0000000000e+00
3.6000000000e-01 0.0000000000e+00 0.0000000000e+00
3.7000000000e-01 0.0000000000e+00 0.0000000000e+00
3.8000000000e-01 0.0000000000e+00 0.0000000000e+00
3.9000000000e-01 0.0000000000e+00 0.0000000000e+00
4.0000000000e-01 0.0000000000e+00 0.0000000000e+00
4.1000000000e-01 0.0000000000e+00 0.0000000000e+00
4.2000000000e-01 0.0000000000e+00 0.0000000000e+00
4.3000000000e-01 0.0000000000e+00 0.0000000000e+00
4.4000000000e-01 0.0000000000e+00 0.0000000000e+00
4.5000000000e-01 0.0000000000e+00 0.0000000000e+00
4.6000000000e-01 0.0000000000e+00 0.0000000000e+00
4.7000000000e-01 0.0000000000e+00 0.0000000000e+00
4.8000000000e-01 0.0000000000e+00 0.0000000000e+00
4.9000000000e-01 0.0000000000e+00 0.0000000000e+00
5.0000000000e-01 0.0000000000e+00 0.0000000000e+00
5.1000000000e-01 0.0000000000e+00 0.0000000000e+00
5.2000000000e-01 0.0000000000e+00 0.0000000000e+00
5.3000000000e-01 0.0000000000e+00 0.0000000000e+00
5.4000000000e-01 0.0000000000e+00 0.0000000000e+00
5.5000000000e-01 0.0000000000e+00 0.0000000000e+00
5.6000000000e-01 0.0000000000e+00 0.0000000000e+00
5.7000000000e-01 0.0000000000e+00 0.0000000000e+00
5.8000000000e-01 0.0000000000e+00 0.0000000000e+00
5.9000000000e-01 0.0000000000e+00 0.0000000000e+00
6.0000000000e-01 0.0000000000e+00 0.0000000000e+00
6.1000000000e-01 0.0000000000e+00 0.0000000000e+00
6.2000000000e-01 0.0000000000e+00 0.0000000000e+00
6.3000000000e-01 0.0000000000e+00 0.0000000000e+00
6.4000000000e-01 0.0000000000e+00 0.0000000000e+00
6.5000000000e-01 0.0000000000e+00 0.0000000000e+00
6.6000000000e-01 0.0000000000e+00 0.0000000000e+00
6.7000000000e-01 0.0000000000e+00 0.0000000000e+00
6.8000000000e-01 0.0000000000e+00 0.0000000000e+00
6.9000000000e-01 0.0000000000e+00 0.0000000000e+00
7.0000000000e-01 0.0000000000e+00 0.0000000000e+00
7.1000000000e-01 0.0000000000e+00 0.0000000000e+00
7.2000000000e-01 0.0000000000e+00 0.0000000000e+00
7.3000000000e-01 0.0000000000e+00 0.0000000000e+00
7.4000000000e-01 0.0000000000e+00 0.0000000000e+00
7.5000000000e-01 0.0000000000e+00 0.0000000000e+00
7.6000000000e-01 0.0000000000e+00 0.0000000000e+00
7.7000000000e-01 0.0000000000e+00 0.0000000000e+00
7.8000000000e-01 0.0000000000e+00 0.0000000000e+00
7.9000000000e-01 0.0000000000e+00 0.0000000000e+00
8.0000000000e-01 0.0000000000e+00 0.0000000000e+00
8.1000000000e-01 0.0000000000e+00 0.0000000000e+00
8.2000000000e-01 0.0000000000e+00 0.0000000000e+00
8.3000000000e-01 0.0000000000e+00 0.0000000000e+00
8.4000000000e-01 0.0000000000e+00 0.0000000000e+00
8.5000000000e-01 0.0000000000e+00 0.0000000000e+00
8.6000000000e-01 0.0000000000e+00 0.0000000000e+00
8.7000000000e-01 0.0000000000e+00 0.0000000000e+00
8.8000000000e-01 0.0000000000e+00 0.0000000000e+00
8.9000000000e-01 0.0000000000e+00 0.0000000000e+00
9.0000000000e-01 0.0000000000e+00 0.0000000000e+00
9.1000000000e-01 0.0000000000e+00 0.0000000000e+00
9.2000000000e-01 0.0000000000e+00 0.0000000000e+00
9.3000000000e-01 0.0000000000e+00 0.0000000000e+00
9.4000000000e-01 0.0000000000e+00 0.0000000000e+00
9.5000000000e-01 0.0000000000e+00 0.0000000000e+00
9.6000000000e-01 0.0000000000e+00 0.0000000000e+00
9.7000000000e-01 0.0000000000e+00 0.0000000000e+00
9.8000000000e-01 0.0000000000e+00 0.0000000000e+00
9.9000000000e-01 0.0000000000e+00 0.0000000000e+00
1.0000000000e+00 0.0000000000e+00 0.0000000000e+00
0.0000000000e+00 1.0000000000e-02 0.0000000000e+00
1.0000000000e-02 1.0000000000e-02 0.0000000000e+00
2.0000000000e-02 1.0000000000e-02 0.0000000000e+00
3.0000000000e-02 1.0000000000e-02 0.0000000000e+00
4.0000000000e-02 1.0000000000e-02 0.0000000000e+00
5.0000000000e-02 1.0000000000e-02 0.0000000000e+00
6.0000000000e-02 1.0000000000e-02 0.0000000000e+00
7.0000000000e-02 1.0000000000e-02 0.0000000000e+00
8.0000000000e-02 1.0000000000e-02 0.0000000000e+00
9.0000000000e-02 1.0000000000e-02 0.0000000000e+00
1.0000000000e-01 1.0000000000e-02 0.0000000000e+00
1.1000000000e-01 1.0000000000e-02 0.0000000000e+00
1.2000000000e-01 1.0000000000e-02 0.0000000000e+00
1.3000000000e-01 1.0000000000e-02 0.0000000000e+00
1.4000000000e-01 1.0000000000e-02 0.0000000000e+00
1.5000000000e-01 1.0000000000e-02 0.0000000000e+00
1.6000000000e-01 1.0000000000e-02 0.0000000000e+00
1.7000000000e-01 1.0000000000e-02 0.0000000000e+00
1.8000000000e-01 1.0000000000e-02 0.0000000000e+00
1.9000000000e-01 1.0000000000e-02 0.0000000000e+00
2.0000000000e-01 1.0000000000e-02 0.0000000000e+00
2.1000000000e-01 1.0000000000e-02 0.0000000000e+00
2.2000000000e-01 1.0000000000e-02 0.0000000000e+00
2.3000000000e-01 1.0000000000e-02 0.0000000000e+00
2.4000000000e-01 1.0000000000e-02 0.0000000000e+00
2.5000000000e-01 1.0000000000e-02 0.0000000000e+00
2.6000000000e-01 1.0000000000e-02 0.0000000000e+00
2.7000000000e-01 1.0000000000e-02 0.0000000000e+00
2.8000000000e-01 1.0000000000e-02 0.0000000000e+00
2.9000000000e-01 1.0000000000e-02 0.0000000000e+00
3.0000000000e-01 1.0000000000e-02 0.0000000000e+00
3.1000000000e-01 1.0000000000e-02 0.0000000000e+00
3.2000000000e-01 1.0000000000e-02 0.0000000000e+00
3.3000000000e-01 1.0000000000e-02 0.0000000000e+00
3.4000000000e-01 1.0000000000e-02 0.0000000000e+00
3.5000000000e-01 1.0000000000e-02 0.0000000000e+00
3.6000000000e-01 1.0000000000e-02 0.0000000000e+00
3.7000000000e-01 1.0000000000e-02 0.0000000000e+00
3.8000000000e-01 1.0000000000e-02 0.0000000000e+00
3.9000000000e-01 1.0000000000e-02 0.0000000000e+00
4.0000000000e-01 1.0000000000e-02 0.0000000000e+00
4.1000000000e-01 1.0000000000e-02 0.0000000000e+00
4.2000000000e-01 1.0000000000e-02 0.0000000000e+00
4.3000000000e-01 1.0000000000e-02 0.0000000000e+00
4.4000000000e-01 1.0000000000e-02 0.0000000000e+00
4.5000000000e-01 1.0000000000e-02 0.0000000000e+00
4.6000000000e-01 1.0000000000e-02 0.0000000000e+00
4.7000000000e-01 1.0000000000e-02 0.0000000000e+00
4.8000000000e-01 1.0000000000e-02 0.0000000000e+00
4.9000000000e-01 1.0000000000e-02 0.0000000000e+00
5.0000000000e-01 1.0000000000e-02 0.0000000000e+00
5.1000000000e-01 1.0000000000e-02 0.0000000000e+00
5.2000000000e-01 1.0000000000e-02 0.0000000000e+00
5.3000000000e-01 1.0000000000e-02 0.0000000000e+00
5.4000000000e-01 1.0000000000e-02 0.0000000000e+00
5.5000000000e-01 1.0000000000e-02 0.0000000000e+00
5.6000000000e-01 1.0000000000e-02 0.0000000000e+00
5.7000000000e-01 1.0000000000e-02 0.0000000000e+00
5.8000000000e-01 1.0000000000e-02 0.0000000000e+00
5.9000000000e-01 1.0000000000e-02 0.0000000000e+00
6.0000000000e-01 1.0000000000e-02 0.0000000000e+00
6.1000000000e-01 1.0000000000e-02 0.0000000000e+00
6.2000000000e-01 1.0000000000e-02 0.0000000000e+00
6.3000000000e-01 1.0000000000e-02 0.0000000000e+00
6.4000000000e-01 1.0000000000e-02 0.0000000000e+00
6.5000000000e-01 1.0000000000e-02 0.0000000000e+00
6.6000000000e-01 1.0000000000e-02 0.0000000000e+00
6.7000000000e-01 1.0000000000e-02 0.0000000000e+00
6.8000000000e-01 1.0000000000e-02 0.0000000000e+00
6.9000000000e-01 1.0000000000e-02 0.0000000000e+00
7.0000000000e-01 1.0000000000e-02 0.0000000000e+00
7.1000000000e-01 1.0000000000e-02 0.0000000000e+00
7.2000000000e-01 1.0000000000e-02 0.0000000000e+00
7.3000000000e-01 1.0000000000e-02 0.0000000000e+00
7.4000000000e-01 1.0000000000e-02 0.0000000000e+00
7.5000000000e-01 1.0000000000e-02 0.0000000000e+00
7.6000000000e-01 1.0000000000e-02 0.0000000000e+00
7.7000000000e-01 1.0000000000e-02 0.0000000000e+00
7.8000000000e-01 1.0000000000e-02 0.0000000000e+00
7.9000000000e-01 1.0000000000e-02 0.0000000000e+00
8.0000000000e-01 1.0000000000e-02 0.0000000000e+00
8.1000000000e-01 1.0000000000e-02 0.0000000000e+00
8.2000000000e-01 1.0000000000e-02 0.0000000000e+00
8.3000000000e-01 1.0000000000e-02 0.0000000000e+00
8.4000000000e-01 1.0000000000e-02 0.0000000000e+00
8.5000000000e-01 1.0000000000e-02 0.0000000000e+00
8.6000000000e-01 1.0000000000e-02 0.0000000000e+00
8.7000000000e-01 1.0000000000e-02 0.0000000000e+00
8.8000000000e-01 1.0000000000e-02 0.0000000000e+00
8.9000000000e-01 1.0000000000e-02 0.0000000000e+00
9.0000000000e-01 1.0000000000e-02 0.0000000000e+00
9.1000000000e-01 1.0000000000e-02 0.0000000000e+00
9.2000000000e-01 1.0000000000e-02 0.0000000000e+00
[...]
CELL_DATA 10000

SCALARS massDensity float
LOOKUP_TABLE default
1.2006003359e+00
1.2006184062e+00
1.2006459416e+00
1.2006877962e+00
1.2007434238e+00
1.2008121332e+00
1.2008931056e+00
1.2009854071e+00
1.2010880046e+00
1.2011997810e+00
1.2013195554e+00
1.2014461009e+00
1.2015781660e+00
1.2017144935e+00
1.2018538403e+00
1.2019949945e+00
1.2021367927e+00
1.2022781341e+00
1.2024179934e+00
1.2025554307e+00
1.2026896002e+00
1.2028197554e+00
1.2029452528e+00
1.2030655528e+00
1.2031802192e+00
1.2032889164e+00
1.2033914045e+00
1.2034875342e+00
1.2035772394e+00
1.2036605294e+00
1.2037374807e+00
1.2038082282e+00
1.2038729561e+00
1.2039318899e+00
1.2039852874e+00
1.2040334311e+00
1.2040766211e+00
1.2041151684e+00
1.2041493891e+00
1.2041795994e+00
1.2042061114e+00
1.2042292298e+00
1.2042492490e+00
1.2042664509e+00
1.2042811035e+00
1.2042934599e+00
1.2043037578e+00
1.2043122188e+00
1.2043190491e+00
1.2043244390e+00
1.2043285639e+00
1.2043315843e+00
1.2043336466e+00
1.2043348837e+00
1.2043354154e+00
1.2043353494e+00
1.2043347817e+00
1.2043337971e+00
1.2043324705e+00
1.2043308670e+00
1.2043290429e+00
1.2043270464e+00
1.2043249184e+00
1.2043226933e+00
1.2043203998e+00
1.2043180615e+00
1.2043156978e+00
1.2043133247e+00
1.2043109553e+00
1.2043086003e+00
1.2043062691e+00
1.2043039693e+00
1.2043017081e+00
1.2042994916e+00
1.2042973260e+00
1.2042952166e+00
1.2042931690e+00
1.2042911881e+00
1.2042892788e+00
1.2042874455e+00
1.2042856922e+00
1.2042840224e+00
1.2042824393e+00
1.2042809458e+00
1.2042795445e+00
1.2042782384e+00
1.2042770314e+00
1.2042759284e+00
1.2042749366e+00
1.2042740661e+00
1.2042733303e+00
1.2042727466e+00
1.2042723369e+00
1.2042721283e+00
1.2042721542e+00
1.2042724579e+00
1.2042730979e+00
1.2042741560e+00
1.2042757397e+00
1.2042676934e+00
1.2006184062e+00
1.2006375701e+00
1.2006656092e+00
1.2007077267e+00
1.2007634317e+00
1.2008320724e+00
1.2009128554e+00
1.2010048657e+00
1.2011070824e+00
1.2012183997e+00
1.2013376441e+00
1.2014635965e+00
1.2015950111e+00
1.2017306364e+00
1.2018692337e+00
1.2020095958e+00
1.2021505628e+00
1.2022910378e+00
1.2024299987e+00
1.2025665092e+00
1.2026997267e+00
1.2028289083e+00
1.2029534139e+00
1.2030727081e+00
1.2031863584e+00
1.2032940338e+00
1.2033954992e+00
1.2034906102e+00
1.2035793062e+00
1.2036616022e+00
1.2037375809e+00
1.2038073832e+00
1.2038712002e+00
1.2039292636e+00
1.2039818378e+00
1.2040292118e+00
1.2040716915e+00
1.2041095935e+00
1.2041432388e+00
1.2041729479e+00
1.2041990364e+00
1.2042218111e+00
1.2042415677e+00
1.2042585885e+00
1.2042731404e+00
1.2042854746e+00
1.2042958255e+00
1.2043044109e+00
1.2043114318e+00
1.2043170733e+00
1.2043215044e+00
1.2043248794e+00
1.2043273381e+00
1.2043290070e+00
1.2043299997e+00
1.2043304180e+00
1.2043303524e+00
1.2043298835e+00
1.2043290818e+00
1.2043280093e+00
1.2043267197e+00
1.2043252596e+00
1.2043236686e+00
1.2043219806e+00
1.2043202239e+00
1.2043184225e+00
1.2043165961e+00
1.2043147613e+00
1.2043129315e+00
1.2043111179e+00
1.2043093297e+00
1.2043075747e+00
1.2043058592e+00
1.2043041887e+00
1.2043025679e+00
1.2043010008e+00
1.2042994908e+00
1.2042980410e+00
1.2042966538e+00
1.2042953312e+00
1.2042940748e+00
1.2042928858e+00
1.2042917650e+00
1.2042907129e+00
1.2042897302e+00
1.2042888175e+00
1.2042879760e+00
1.2042872076e+00
1.2042865154e+00
1.2042859041e+00
1.2042853802e+00
1.2042849517e+00
1.2042846291e+00
1.2042844240e+00
1.2042843498e+00
1.2042844208e+00
1.2042846506e+00
1.2042850471e+00
1.2042855974e+00
1.2042755852e+00
1.2006459416e+00
1.2006656092e+00
1.2006936572e+00
1.2007356052e+00
1.2007909872e+00
1.2008591714e+00
1.2009393824e+00
1.2010307187e+00
1.2011321731e+00
1.2012426506e+00
1.2013609898e+00
1.2014859816e+00
1.2016163915e+00
1.2017509776e+00
1.2018885115e+00
1.2020277950e+00
1.2021676776e+00
1.2023070703e+00
1.2024449592e+00
1.2025804147e+00
1.2027126011e+00
1.2028407808e+00
1.2029643191e+00
1.2030826845e+00
1.2031954487e+00
1.2033022829e+00
1.2034029548e+00
1.2034973215e+00
1.2035853235e+00
1.2036669762e+00
1.2037423626e+00
1.2038116230e+00
1.2038749479e+00
1.2039325676e+00
1.2039847451e+00
1.2040317675e+00
1.2040739387e+00
1.2041115727e+00
1.2041449882e+00
1.2041745027e+00
1.2042004286e+00
1.2042230698e+00
1.2042427188e+00
1.2042596542e+00
1.2042741399e+00
1.2042864234e+00
1.2042967362e+00
1.2043052927e+00
1.2043122912e+00
1.2043179138e+00
1.2043223273e+00
1.2043256838e+00
1.2043281215e+00
1.2043297653e+00
1.2043307281e+00
1.2043311109e+00
1.2043310044e+00
1.2043304889e+00
1.2043296356e+00
1.2043285072e+00
1.2043271586e+00
1.2043256372e+00
1.2043239843e+00
1.2043222347e+00
1.2043204185e+00
1.2043185608e+00
1.2043166827e+00
1.2043148017e+00
1.2043129324e+00
1.2043110866e+00
1.2043092744e+00
1.2043075037e+00
1.2043057812e+00
1.2043041124e+00
1.2043025016e+00
1.2043009526e+00
1.2042994683e+00
1.2042980509e+00
1.2042967022e+00
1.2042954234e+00
1.2042942152e+00
1.2042930777e+00
1.2042920110e+00
1.2042910147e+00
1.2042900884e+00
1.2042892317e+00
1.2042884446e+00
1.2042877277e+00
1.2042870822e+00
1.2042865104e+00
1.2042860156e+00
1.2042856018e+00
1.2042852738e+00
1.2042850359e+00
1.2042848915e+00
1.2042848404e+00
1.2042848749e+00
1.2042849716e+00
1.2042850749e+00
1.2042741024e+00
1.2006877962e+00
1.2007077267e+00
1.2007356052e+00
1.2007771909e+00
1.2008320253e+00
1.2008994906e+00
1.2009788253e+00
1.2010691438e+00
1.2011694533e+00
1.2012786749e+00
1.2013956616e+00
1.2015192208e+00
1.2016481319e+00
1.2017811692e+00
1.2019171178e+00
1.2020547944e+00
1.2021930611e+00
1.2023308425e+00
1.2024671353e+00
1.2026010217e+00
1.2027316747e+00
1.2028583660e+00
1.2029804678e+00
1.2030974555e+00
1.2032089053e+00
1.2033144934e+00
1.2034139898e+00
1.2035072544e+00
1.2035942284e+00
1.2036749283e+00
1.2037494360e+00
1.2038178915e+00
1.2038804831e+00
1.2039374396e+00
1.2039890209e+00
1.2040355114e+00
1.2040772114e+00
1.2041144318e+00
1.2041474868e+00
1.2041766902e+00
1.2042023501e+00
1.2042247661e+00
1.2042442262e+00
1.2042610049e+00
1.2042753614e+00
1.2042875395e+00
1.2042977660e+00
1.2043062519e+00
1.2043131915e+00
1.2043187640e+00
1.2043231330e+00
1.2043264482e+00
1.2043288454e+00
1.2043304482e+00
1.2043313677e+00
1.2043317044e+00
1.2043315483e+00
1.2043309798e+00
1.2043300703e+00
1.2043288832e+00
1.2043274738e+00
1.2043258910e+00
1.2043241767e+00
1.2043223674e+00
1.2043204941e+00
1.2043185832e+00
1.2043166569e+00
1.2043147337e+00
1.2043128291e+00
1.2043109558e+00
1.2043091240e+00
1.2043073423e+00
1.2043056173e+00
1.2043039546e+00
1.2043023583e+00
1.2043008317e+00
1.2042993772e+00
1.2042979966e+00
1.2042966907e+00
1.2042954599e+00
1.2042943040e+00
1.2042932225e+00
1.2042922143e+00
1.2042912782e+00
1.2042904126e+00
1.2042896162e+00
1.2042888877e+00
1.2042882261e+00
1.2042876310e+00
1.2042871023e+00
1.2042866403e+00
1.2042862454e+00
1.2042859177e+00
1.2042856559e+00
1.2042854560e+00
1.2042853084e+00
1.2042851950e+00
1.2042850811e+00
1.2042849060e+00
1.2042734528e+00
1.2007434238e+00
1.2007634317e+00
1.2007909872e+00
1.2008320253e+00
1.2008860922e+00
1.2009525795e+00
1.2010307406e+00
1.2011197051e+00
1.2012184989e+00
1.2013260603e+00
1.2014412628e+00
1.2015629319e+00
1.2016898680e+00
1.2018208634e+00
1.2019547237e+00
1.2020902828e+00
1.2022264217e+00
1.2023620803e+00
1.2024962722e+00
1.2026280924e+00
1.2027567279e+00
1.2028814606e+00
1.2030016735e+00
1.2031168494e+00
1.2032265721e+00
1.2033305223e+00
1.2034284748e+00
1.2035202914e+00
1.2036059153e+00
1.2036853628e+00
1.2037587156e+00
1.2038261118e+00
1.2038877377e+00
1.2039438185e+00
1.2039946112e+00
1.2040403955e+00
1.2040814678e+00
1.2041181334e+00
1.2041507022e+00
1.2041794821e+00
1.2042047764e+00
1.2042268789e+00
1.2042460723e+00
1.2042626255e+00
1.2042767928e+00
1.2042888124e+00
1.2042989068e+00
1.2043072819e+00
1.2043141284e+00
1.2043196209e+00
1.2043239201e+00
1.2043271722e+00
1.2043295109e+00
1.2043310573e+00
1.2043319213e+00
1.2043322019e+00
1.2043319886e+00
1.2043313613e+00
1.2043303917e+00
1.2043291432e+00
1.2043276721e+00
1.2043260278e+00
1.2043242534e+00
1.2043223863e+00
1.2043204586e+00
1.2043184978e+00
1.2043165270e+00
1.2043145657e+00
1.2043126302e+00
1.2043107335e+00
1.2043088867e+00
1.2043070983e+00
1.2043053753e+00
1.2043037230e+00
1.2043021454e+00
1.2043006454e+00
1.2042992249e+00
1.2042978849e+00
1.2042966256e+00
1.2042954468e+00
1.2042943474e+00
1.2042933259e+00
1.2042923804e+00
1.2042915087e+00
1.2042907082e+00
1.2042899766e+00
1.2042893113e+00
1.2042887099e+00
1.2042881703e+00
1.2042876902e+00
1.2042872676e+00
1.2042869000e+00
1.2042865838e+00
1.2042863138e+00
1.2042860812e+00
1.2042858722e+00
1.2042856647e+00
1.2042854241e+00
1.2042850979e+00
1.2042735260e+00
1.2008121332e+00
1.2008320724e+00
1.2008591714e+00
1.2008994906e+00
1.2009525795e+00
1.2010178410e+00
1.2010945420e+00
1.2011818312e+00
1.2012787530e+00
1.2013842690e+00
1.2014972737e+00
1.2016166175e+00
1.2017411230e+00
1.2018696078e+00
1.2020008993e+00
1.2021338555e+00
1.2022673775e+00
1.2024004273e+00
1.2025320361e+00
1.2026613176e+00
1.2027874733e+00
1.2029098003e+00
1.2030276923e+00
1.2031406434e+00
1.2032482447e+00
1.2033501844e+00
1.2034462410e+00
1.2035362803e+00
1.2036202464e+00
1.2036981564e+00
1.2037700905e+00
1.2038361852e+00
1.2038966232e+00
1.2039516265e+00
1.2040014467e+00
1.2040463591e+00
1.2040866539e+00
1.2041226310e+00
1.2041545935e+00
1.2041828435e+00
1.2042076772e+00
1.2042293824e+00
1.2042482349e+00
1.2042644977e+00
1.2042784185e+00
1.2042902301e+00
1.2043001488e+00
1.2043083759e+00
1.2043150964e+00
1.2043204813e+00
1.2043246866e+00
1.2043278558e+00
1.2043301190e+00
1.2043315952e+00
1.2043323922e+00
1.2043326079e+00
1.2043323305e+00
1.2043316395e+00
1.2043306063e+00
1.2043292947e+00
1.2043277612e+00
1.2043260560e+00
1.2043242229e+00
1.2043223003e+00
1.2043203211e+00
1.2043183138e+00
1.2043163024e+00
1.2043143071e+00
1.2043123448e+00
1.2043104293e+00
1.2043085718e+00
1.2043067812e+00
1.2043050645e+00
1.2043034268e+00
1.2043018719e+00
1.2043004024e+00
1.2042990196e+00
1.2042977241e+00
1.2042965153e+00
1.2042953923e+00
1.2042943532e+00
1.2042933956e+00
1.2042925169e+00
1.2042917138e+00
1.2042909831e+00
1.2042903210e+00
1.2042897241e+00
1.2042891885e+00
1.2042887107e+00
1.2042882868e+00
1.2042879126e+00
1.2042875833e+00
1.2042872932e+00
1.2042870342e+00
1.2042867956e+00
1.2042865620e+00
1.2042863116e+00
1.2042860145e+00
1.2042856299e+00
1.2042742144e+00
1.2008931056e+00
1.2009128554e+00
1.2009393824e+00
1.2009788253e+00
1.2010307406e+00
1.2010945420e+00
1.2011695139e+00
1.2012548234e+00
1.2013495390e+00
1.2014526451e+00
1.2015630640e+00
1.2016796715e+00
1.2018013196e+00
1.2019268515e+00
1.2020551239e+00
1.2021850194e+00
1.2023154664e+00
1.2024454492e+00
1.2025740229e+00
1.2027003204e+00
1.2028235630e+00
1.2029430627e+00
1.2030582288e+00
1.2031685660e+00
1.2032736762e+00
1.2033732540e+00
1.2034670846e+00
1.2035550361e+00
1.2036370557e+00
1.2037131595e+00
1.2037834274e+00
1.2038479923e+00
1.2039070341e+00
1.2039607693e+00
1.2040094449e+00
1.2040533292e+00
1.2040927064e+00
1.2041278689e+00
1.2041591129e+00
1.2041867326e+00
1.2042110171e+00
1.2042322463e+00
1.2042506890e+00
1.2042666004e+00
1.2042802218e+00
1.2042917786e+00
1.2043014816e+00
1.2043095254e+00
1.2043160903e+00
1.2043213415e+00
1.2043254315e+00
1.2043284990e+00
1.2043306716e+00
1.2043320650e+00
1.2043327851e+00
1.2043329278e+00
1.2043325804e+00
1.2043318214e+00
1.2043307221e+00
1.2043293460e+00
1.2043277501e+00
1.2043259849e+00
1.2043240950e+00
1.2043221193e+00
1.2043200918e+00
1.2043180416e+00
1.2043159935e+00
1.2043139684e+00
1.2043119838e+00
1.2043100538e+00
1.2043081900e+00
1.2043064015e+00
1.2043046952e+00
1.2043030762e+00
1.2043015481e+00
1.2043001129e+00
1.2042987717e+00
1.2042975243e+00
1.2042963697e+00
1.2042953061e+00
1.2042943310e+00
1.2042934413e+00
1.2042926335e+00
1.2042919035e+00
1.2042912471e+00
1.2042906598e+00
1.2042901369e+00
1.2042896736e+00
1.2042892650e+00
1.2042889058e+00
1.2042885904e+00
1.2042883125e+00
1.2042880646e+00
1.2042878375e+00
1.2042876198e+00
1.2042873963e+00
1.2042871478e+00
1.2042868501e+00
1.2042864736e+00
1.2042754280e+00
1.2009854071e+00
1.2010048657e+00
1.2010307187e+00
1.2010691438e+00
1.2011197051e+00
1.2011818312e+00
1.2012548234e+00
1.2013378724e+00
1.2014300700e+00
1.2015304298e+00
1.2016379017e+00
1.2017513937e+00
1.2018697871e+00
1.2019919583e+00
1.2021167928e+00
1.2022432054e+00
1.2023701516e+00
1.2024966447e+00
1.2026217635e+00
1.2027446660e+00
1.2028645929e+00
1.2029808764e+00
1.2030929402e+00
1.2032003041e+00
1.2033025796e+00
1.2033994711e+00
1.2034907688e+00
1.2035763461e+00
1.2036561507e+00
1.2037302003e+00
1.2037985718e+00
1.2038613963e+00
1.2039188483e+00
1.2039711398e+00
1.2040185106e+00
1.2040612229e+00
1.2040995524e+00
1.2041337842e+00
1.2041642055e+00
1.2041911028e+00
1.2042147560e+00
1.2042354371e+00
1.2042534060e+00
1.2042689104e+00
1.2042821833e+00
1.2042934433e+00
1.2043028934e+00
1.2043107224e+00
1.2043171040e+00
1.2043221986e+00
1.2043261532e+00
1.2043291029e+00
1.2043311710e+00
1.2043324707e+00
1.2043331049e+00
1.2043331680e+00
1.2043327455e+00
1.2043319154e+00
1.2043307479e+00
1.2043293068e+00
1.2043276489e+00
1.2043258251e+00
1.2043238805e+00
1.2043218547e+00
1.2043197822e+00
1.2043176929e+00
1.2043156122e+00
1.2043135616e+00
1.2043115590e+00
1.2043096190e+00
1.2043077533e+00
1.2043059712e+00
1.2043042795e+00
1.2043026833e+00
1.2043011858e+00
1.2042997888e+00
1.2042984928e+00
1.2042972972e+00
1.2042962004e+00
1.2042951999e+00
1.2042942927e+00
1.2042934748e+00
1.2042927420e+00
1.2042920896e+00
1.2042915125e+00
1.2042910054e+00
1.2042905627e+00
1.2042901785e+00
1.2042898471e+00
1.2042895620e+00
1.2042893167e+00
1.2042891036e+00
1.2042889147e+00
1.2042887401e+00
1.2042885686e+00
1.2042883864e+00
1.2042881773e+00
1.2042879225e+00
1.2042876015e+00
1.2042770959e+00
1.2010880046e+00
1.2011070824e+00
1.2011321731e+00
1.2011694533e+00
1.2012184989e+00
1.2012787530e+00
1.2013495390e+00
1.2014300700e+00
1.2015194671e+00
1.2016167725e+00
1.2017209699e+00
1.2018309992e+00
1.2019457778e+00
1.2020642149e+00
1.2021852322e+00
1.2023077757e+00
1.2024308351e+00
1.2025534518e+00
1.2026747351e+00
1.2027938668e+00
1.2029101129e+00
1.2030228245e+00
1.2031314447e+00
1.2032355067e+00
1.2033346358e+00
1.2034285444e+00
1.2035170309e+00
1.2035999717e+00
1.2036773181e+00
1.2037490864e+00
1.2038153530e+00
1.2038762443e+00
1.2039319311e+00
1.2039826182e+00
1.2040285394e+00
1.2040699480e+00
1.2041071121e+00
1.2041403072e+00
1.2041698120e+00
1.2041959027e+00
1.2042188508e+00
1.2042389179e+00
1.2042563559e+00
1.2042714027e+00
1.2042842834e+00
1.2042952080e+00
1.2043043726e+00
1.2043119581e+00
1.2043181324e+00
1.2043230496e+00
1.2043268517e+00
1.2043296689e+00
1.2043316209e+00
1.2043328171e+00
1.2043333582e+00
1.2043333359e+00
1.2043328346e+00
1.2043319307e+00
1.2043306941e+00
1.2043291878e+00
1.2043274690e+00
1.2043255884e+00
1.2043235918e+00
1.2043215190e+00
1.2043194053e+00
1.2043172808e+00
1.2043151718e+00
1.2043131001e+00
1.2043110840e+00
1.2043091385e+00
1.2043072754e+00
1.2043055039e+00
1.2043038311e+00
1.2043022618e+00
1.2043007988e+00
1.2042994438e+00
1.2042981968e+00
1.2042970566e+00
1.2042960212e+00
1.2042950876e+00
1.2042942519e+00
1.2042935099e+00
1.2042928564e+00
1.2042922862e+00
1.2042917934e+00
1.2042913721e+00
1.2042910158e+00
1.2042907181e+00
1.2042904721e+00
1.2042902709e+00
1.2042901070e+00
1.2042899724e+00
1.2042898586e+00
1.2042897558e+00
1.2042896533e+00
1.2042895391e+00
1.2042893998e+00
1.2042892213e+00
1.2042889897e+00
1.2042791634e+00
1.2011997810e+00
1.2012183997e+00
1.2012426506e+00
1.2012786749e+00
1.2013260603e+00
1.2013842690e+00
1.2014526451e+00
1.2015304298e+00
1.2016167725e+00
1.2017107497e+00
1.2018113782e+00
1.2019176364e+00
1.2020284768e+00
1.2021428482e+00
1.2022597073e+00
1.2023780388e+00
1.2024968647e+00
1.2026152617e+00
1.2027323677e+00
1.2028473949e+00
1.2029596324e+00
1.2030684559e+00
1.2031733261e+00
1.2032737941e+00
1.2033694970e+00
1.2034601589e+00
1.2035455842e+00
1.2036256556e+00
1.2037003252e+00
1.2037696105e+00
1.2038335848e+00
1.2038923718e+00
1.2039461358e+00
1.2039950761e+00
1.2040394176e+00
1.2040794061e+00
1.2041152994e+00
1.2041473641e+00
1.2041758682e+00
1.2042010783e+00
1.2042232550e+00
1.2042426508e+00
1.2042595065e+00
1.2042740516e+00
1.2042865012e+00
1.2042970573e+00
1.2043059070e+00
1.2043132246e+00
1.2043191703e+00
1.2043238925e+00
1.2043275270e+00
1.2043301996e+00
1.2043320253e+00
1.2043331105e+00
1.2043335522e+00
1.2043334405e+00
1.2043328574e+00
1.2043318784e+00
1.2043305721e+00
1.2043290016e+00
1.2043272232e+00
1.2043252884e+00
1.2043232426e+00
1.2043211265e+00
1.2043189753e+00
1.2043168201e+00
1.2043146872e+00
1.2043125990e+00
1.2043105740e+00
1.2043086275e+00
1.2043067715e+00
1.2043050152e+00
1.2043033656e+00
1.2043018272e+00
1.2043004028e+00
1.2042990936e+00
1.2042978993e+00
1.2042968183e+00
1.2042958480e+00
1.2042949849e+00
1.2042942247e+00
1.2042935624e+00
1.2042929926e+00
1.2042925091e+00
1.2042921058e+00
1.2042917758e+00
1.2042915124e+00
1.2042913082e+00
1.2042911561e+00
1.2042910483e+00
1.2042909769e+00
1.2042909337e+00
1.2042909099e+00
1.2042908962e+00
1.2042908826e+00
1.2042908588e+00
1.2042908137e+00
1.2042907369e+00
1.2042906189e+00
1.2042815887e+00
1.2013195554e+00
1.2013376441e+00
1.2013609898e+00
1.2013956616e+00
1.2014412628e+00
1.2014972737e+00
1.2015630640e+00
1.2016379017e+00
1.2017209699e+00
1.2018113782e+00
1.2019081829e+00
1.2020103987e+00
1.2021170205e+00
1.2022270348e+00
1.2023394404e+00
1.2024532583e+00
1.2025675502e+00
1.2026814259e+00
1.2027940582e+00
1.2029046874e+00
1.2030126321e+00
1.2031172898e+00
1.2032181441e+00
1.2033147616e+00
1.2034067954e+00
1.2034939790e+00
1.2035761264e+00
1.2036531236e+00
1.2037249267e+00
1.2037915520e+00
1.2038530716e+00
1.2039096041e+00
1.2039613091e+00
1.2040083774e+00
1.2040510270e+00
1.2040894930e+00
1.2041240247e+00
1.2041548769e+00
1.2041823080e+00
1.2042065728e+00
1.2042279217e+00
1.2042465956e+00
1.2042628258e+00
1.2042768307e+00
1.2042888164e+00
1.2042989750e+00
1.2043074858e+00
1.2043145143e+00
1.2043202140e+00
1.2043247259e+00
1.2043281809e+00
1.2043306987e+00
1.2043323904e+00
1.2043333581e+00
1.2043336963e+00
1.2043334919e+00
1.2043328254e+00
1.2043317705e+00
1.2043303953e+00
1.2043287617e+00
1.2043269263e+00
1.2043249399e+00
1.2043228485e+00
1.2043206927e+00
1.2043185085e+00
1.2043163269e+00
1.2043141748e+00
1.2043120749e+00
1.2043100459e+00
1.2043081032e+00
1.2043062589e+00
1.2043045224e+00
1.2043029003e+00
1.2043013971e+00
1.2043000154e+00
1.2042987560e+00
1.2042976182e+00
1.2042966000e+00
1.2042956986e+00
1.2042949097e+00
1.2042942288e+00
1.2042936504e+00
1.2042931683e+00
1.2042927763e+00
1.2042924673e+00
1.2042922343e+00
1.2042920699e+00
1.2042919663e+00
1.2042919158e+00
1.2042919103e+00
1.2042919417e+00
1.2042920016e+00
1.2042920812e+00
1.2042921717e+00
1.2042922639e+00
1.2042923486e+00
1.2042924169e+00
1.2042924607e+00
1.2042924736e+00
1.2042843395e+00
1.2014461009e+00
1.2014635965e+00
1.2014859816e+00
1.2015192208e+00
1.2015629319e+00
1.2016166175e+00
1.2016796715e+00
1.2017513937e+00
1.2018309992e+00
1.2019176364e+00
1.2020103987e+00
1.2021083442e+00
1.2022105075e+00
1.2023159197e+00
1.2024236190e+00
1.2025326699e+00
1.2026421709e+00
1.2027512713e+00
1.2028591766e+00
1.2029651611e+00
1.2030685699e+00
1.2031688280e+00
1.2032654390e+00
1.2033579901e+00
1.2034461472e+00
1.2035296575e+00
1.2036083414e+00
1.2036820923e+00
1.2037508670e+00
1.2038146832e+00
1.2038736096e+00
1.2039277613e+00
1.2039772908e+00
1.2040223825e+00
1.2040632441e+00
1.2041001025e+00
1.2041331950e+00
1.2041627666e+00
1.2041890632e+00
1.2042123291e+00
1.2042328023e+00
1.2042507131e+00
1.2042662811e+00
1.2042797146e+00
1.2042912088e+00
1.2043009469e+00
1.2043090983e+00
1.2043158210e+00
1.2043212601e+00
1.2043255504e+00
1.2043288159e+00
1.2043311715e+00
1.2043327230e+00
1.2043335691e+00
1.2043338005e+00
1.2043335020e+00
1.2043327513e+00
1.2043316212e+00
1.2043301782e+00
1.2043284838e+00
1.2043265939e+00
1.2043245595e+00
1.2043224263e+00
1.2043202354e+00
1.2043180225e+00
1.2043158195e+00
1.2043136531e+00
1.2043115465e+00
1.2043095184e+00
1.2043075845e+00
1.2043057569e+00
1.2043040447e+00