# vtk DataFile Version 2.0
Blank
ASCII
DATASET STRUCTURED_GRID
DIMENSIONS 101 101 2
POINTS 20402 float
0.0000000000e+00 0.0000000000e+00 0.0000000000e+00
1.0000000000e-02 0.0000000000e+00 0.0000000000e+00
2.0000000000e-02 0.0000000000e+00 0.0000000000e+00
3.0000000000e-02 0.0000000000e+00 0.0000000000e+00
4.0000000000e-02 0.0000000000e+00 0.0000000000e+00
5.0000000000e-02 0.0000000000e+00 0.0000000000e+00
6.0000000000e-02 0.0000000000e+00 0.0000000000e+00
7.0000000000e-02 0.0000000000e+00 0.0000000000e+00
8.0000000000e-02 0.0000000000e+00 0.0000000000e+00
9.0000000000e-02 0.0000000000e+00 0.0000000000e+00
1.0000000000e-01 0.0000000000e+00 0.0000000000e+00
1.1000000000e-01 0.0000000000e+00 0.0000000000e+00
1.2000000000e-01 0.0000000000e+00 0.0000000000e+00
1.3000000000e-01 0.0000000000e+00 0.0000000000e+00
1.4000000000e-01 0.0000000000e+00 0.0000000000e+00
1.5000000000e-01 0.0000000000e+00 0.0000000000e+00
1.6000000000e-01 0.0000000000e+00 0.0000000000e+00
1.7000000000e-01 0.0000000000e+00 0.0000000000e+00
1.8000000000e-01 0.0000000000e+00 0.0000000000e+00
1.9000000000e-01 0.0000000000e+00 0.0000000000e+00
2.0000000000e-01 0.0000000000e+00 0.0000000000e+00
2.1000000000e-01 0.0000000000e+00 0.0000000000e+00
2.2000000000e-01 0.0000000000e+00 0.0000000000e+00
2.3000000000e-01 0.0000000000e+00 0.0000000000e+00
2.4000000000e-01 0.0000000000e+00 0.0000000000e+00
2.5000000000e-01 0.0000000000e+00 0.0000000000e+00
2.6000000000e-01 0.0000000000e+00 0.0000000000e+00
2.7000000000e-01 0.0000000000e+00 0.0000000000e+00
2.8000000000e-01 0.0000000000e+00 0.0000000000e+00
2.9000000000e-01 0.0000000000e+00 0.0000000000e+00
3.0000000000e-01 0.0000000000e+00 0.0000000000e+00
3.1000000000e-01 0.0000000000e+00 0.0000000000e+00
3.2000000000e-01 0.0000000000e+00 0.0000000000e+00
3.3000000000e-01 0.0000000000e+00 0.0000000000e+00
3.4000000000e-01 0.0000000000e+00 0.0000000000e+00
3.5000000000e-01 0.0000000000e+00 0.0000000000e+00
3.6000000000e-01 0.0000000000e+00 0.0000000000e+00
3.7000000000e-01 0.0000000000e+00 0.0000000000e+00
3.8000000000e-01 0.0000000000e+00 0.0000000000e+00
3.9000000000e-01 0.0000000000e+00 0.0000000000e+00
4.0000000000e-01 0.0000000000e+00 0.0000000000e+00
4.1000000000e-01 0.0000000000e+00 0.0000000000e+00
4.2000000000e-01 0.0000000000e+00 0.0000000000e+00
4.3000000000e-01 0.0000000000e+00 0.0000000000e+00
4.4000000000e-01 0.0000000000e+00 0.0000000000e+00
4.5000000000e-01 0.0000000000e+00 0.0000000000e+00
4.6000000000e-01 0.0000000000e+00 0.0000000000e+00
4.7000000000e-01 0.0000000000e+00 0.0000000000e+00
4.8000000000e-01 0.0000000000e+00 0.0000000000e+00
4.9000000000e-01 0.0000000000e+00 0.0000000000e+00
5.0000000000e-01 0.0000000000e+00 0.0000000000e+00
5.1000000000e-01 0.0000000000e+00 0.0000000000e+00
5.2000000000e-01 0.0000000000e+00 0.0000000000e+00
5.3000000000e-01 0.0000000000e+00 0.0000000000e+00
5.4000000000e-01 0.0000000000e+00 0.0000000000e+00
5.5000000000e-01 0.0000000000e+00 0.0000000000e+00
5.6000000000e-01 0.0000000000e+00 0.0000000000e+00
5.7000000000e-01 0.0000000000e+00 0.0000000000e+00
5.8000000000e-01 0.0000000000e+00 0.0000000000e+00
5.9000000000e-01 0.0000000000e+00 0.0000000000e+00
6.0000000000e-01 0.0000000000e+00 0.0000000000e+00
6.1000000000e-01 0.0000000000e+00 0.0000000000e+00
6.2000000000e-01 0.0000000000e+00 0.0000000000e+00
6.3000000000e-01 0.0000000000e+00 0.0000000000e+00
6.4000000000e-01 0.0000000000e+00 0.0000000000e+00
6.5000000000e-01 0.0000000000e+00 0.0000000000e+00
6.6000000000e-01 0.0000000000e+00 0.0000000000e+00
6.7000000000e-01 0.0000000000e+00 0.0000000000e+00
6.8000000000e-01 0.0000000000e+00 0.0000000000e+00
6.9000000000e-01 0.0000000000e+00 0.0000000000e+00
7.0000000000e-01 0.0000000000e+00 0.0000000000e+00
7.1000000000e-01 0.0000000000e+00 0.0000000000e+00
7.2000000000e-01 0.0000000000e+00 0.0000000000e+00
7.3000000000e-01 0.0000000000e+00 0.0000000000e+00
7.4000000000e-01 0.0000000000e+00 0.0000000000e+00
7.5000000000e-01 0.0000000000e+00 0.0000000000e+00
7.6000000000e-01 0.0000000000e+00 0.0000000000e+00
7.7000000000e-01 0.0000000000e+00 0.0000000000e+00
7.8000000000e-01 0.0000000000e+00 0.0000000000e+00
7.9000000000e-01 0.0000000000e+00 0.0000000000e+00
8.0000000000e-01 0.0000000000e+00 0.0000000000e+00
8.1000000000e-01 0.0000000000e+00 0.0000000000e+00
8.2000000000e-01 0.0000000000e+00 0.0000000000e+00
8.3000000000e-01 0.0000000000e+00 0.0000000000e+00
8.4000000000e-01 0.0000000000e+00 0.0000000000e+00
8.5000000000e-01 0.0000000000e+00 0.0000000000e+00
8.6000000000e-01 0.0000000000e+00 0.0000000000e+00
8.7000000000e-01 0.0000000000e+00 0.0000000000e+00
8.8000000000e-01 0.0000000000e+00 0.0000000000e+00
8.9000000000e-01 0.0000000000e+00 0.0000000000e+00
9.0000000000e-01 0.0000000000e+00 0.0000000000e+00
9.1000000000e-01 0.0000000000e+00 0.0000000000e+00
9.2000000000e-01 0.0000000000e+00 0.0000000000e+00
9.3000000000e-01 0.0000000000e+00 0.0000000000e+00
9.4000000000e-01 0.0000000000e+00 0.0000000000e+00
9.5000000000e-01 0.0000000000e+00 0.0000000000e+00
9.6000000000e-01 0.0000000000e+00 0.0000000000e+00
9.7000000000e-01 0.0000000000e+00 0.0000000000e+00
9.8000000000e-01 0.0000000000e+00 0.0000000000e+00
9.9000000000e-01 0.0000000000e+00 0.0000000000e+00
1.0000000000e+00 0.0000000000e+00 0.0000000000e+00
0.0000000000e+00 1.0000000000e-02 0.0000000000e+00
1.0000000000e-02 1.0000000000e-02 0.0000000000e+00
2.0000000000e-02 1.0000000000e-02 0.0000000000e+00
3.0000000000e-02 1.0000000000e-02 0.0000000000e+00
4.0000000000e-02 1.0000000000e-02 0.0000000000e+00
5.0000000000e-02 1.0000000000e-02 0.0000000000e+00
6.0000000000e-02 1.0000000000e-02 0.0000000000e+00
7.0000000000e-02 1.0000000000e-02 0.0000000000e+00
8.0000000000e-02 1.0000000000e-02 0.0000000000e+00
9.0000000000e-02 1.0000000000e-02 0.0000000000e+00
1.0000000000e-01 1.0000000000e-02 0.0000000000e+00
1.1000000000e-01 1.0000000000e-02 0.0000000000e+00
1.2000000000e-01 1.0000000000e-02 0.0000000000e+00
1.3000000000e-01 1.0000000000e-02 0.0000000000e+00
1.4000000000e-01 1.0000000000e-02 0.0000000000e+00
1.5000000000e-01 1.0000000000e-02 0.0000000000e+00
1.6000000000e-01 1.0000000000e-02 0.0000000000e+00
1.7000000000e-01 1.0000000000e-02 0.0000000000e+00
1.8000000000e-01 1.0000000000e-02 0.0000000000e+00
1.9000000000e-01 1.0000000000e-02 0.0000000000e+00
2.0000000000e-01 1.0000000000e-02 0.0000000000e+00
2.1000000000e-01 1.0000000000e-02 0.0000000000e+00
2.2000000000e-01 1.0000000000e-02 0.0000000000e+00
2.3000000000e-01 1.0000000000e-02 0.0000000000e+00
2.4000000000e-01 1.0000000000e-02 0.0000000000e+00
2.5000000000e-01 1.0000000000e-02 0.0000000000e+00
2.6000000000e-01 1.0000000000e-02 0.0000000000e+00
2.7000000000e-01 1.0000000000e-02 0.0000000000e+00
2.8000000000e-01 1.0000000000e-02 0.0000000000e+00
2.9000000000e-01 1.0000000000e-02 0.0000000000e+00
3.0000000000e-01 1.0000000000e-02 0.0000000000e+00
3.1000000000e-01 1.0000000000e-02 0.0000000000e+00
3.2000000000e-01 1.0000000000e-02 0.0000000000e+00
3.3000000000e-01 1.0000000000e-02 0.0000000000e+00
3.4000000000e-01 1.0000000000e-02 0.0000000000e+00
3.5000000000e-01 1.0000000000e-02 0.0000000000e+00
3.6000000000e-01 1.0000000000e-02 0.0000000000e+00
3.7000000000e-01 1.0000000000e-02 0.0000000000e+00
3.8000000000e-01 1.0000000000e-02 0.0000000000e+00
3.9000000000e-01 1.0000000000e-02 0.0000000000e+00
4.0000000000e-01 1.0000000000e-02 0.0000000000e+00
4.1000000000e-01 1.0000000000e-02 0.0000000000e+00
4.2000000000e-01 1.0000000000e-02 0.0000000000e+00
4.3000000000e-01 1.0000000000e-02 0.0000000000e+00
4.4000000000e-01 1.0000000000e-02 0.0000000000e+00
4.5000000000e-01 1.0000000000e-02 0.0000000000e+00
4.6000000000e-01 1.0000000000e-02 0.0000000000e+00
4.7000000000e-01 1.0000000000e-02 0.0000000000e+00
4.8000000000e-01 1.0000000000e-02 0.0000000000e+00
4.9000000000e-01 1.0000000000e-02 0.0000000000e+00
5.0000000000e-01 1.0000000000e-02 0.0000000000e+00
5.1000000000e-01 1.0000000000e-02 0.0000000000e+00
5.2000000000e-01 1.0000000000e-02 0.0000000000e+00
5.3000000000e-01 1.0000000000e-02 0.0000000000e+00
5.4000000000e-01 1.0000000000e-02 0.0000000000e+00
5.5000000000e-01 1.0000000000e-02 0.0000000000e+00
5.6000000000e-01 1.0000000000e-02 0.0000000000e+00
5.7000000000e-01 1.0000000000e-02 0.0000000000e+00
5.8000000000e-01 1.0000000000e-02 0.0000000000e+00
5.9000000000e-01 1.0000000000e-02 0.0000000000e+00
6.0000000000e-01 1.0000000000e-02 0.0000000000e+00
6.1000000000e-01 1.0000000000e-02 0.0000000000e+00
6.2000000000e-01 1.0000000000e-02 0.0000000000e+00
6.3000000000e-01 1.0000000000e-02 0.0000000000e+00
6.4000000000e-01 1.0000000000e-02 0.0000000000e+00
6.5000000000e-01 1.0000000000e-02 0.0000000000e+00
6.6000000000e-01 1.0000000000e-02 0.0000000000e+00
6.7000000000e-01 1.0000000000e-02 0.0000000000e+00
6.8000000000e-01 1.0000000000e-02 0.0000000000e+00
6.9000000000e-01 1.0000000000e-02 0.0000000000e+00
7.0000000000e-01 1.0000000000e-02 0.0000000000e+00
7.1000000000e-01 1.0000000000e-02 0.0000000000e+00
7.2000000000e-01 1.0000000000e-02 0.0000000000e+00
7.3000000000e-01 1.0000000000e-02 0.0000000000e+00
7.4000000000e-01 1.0000000000e-02 0.0000000000e+00
7.5000000000e-01 1.0000000000e-02 0.0000000000e+00
7.6000000000e-01 1.0000000000e-02 0.0000000000e+00
7.7000000000e-01 1.0000000000e-02 0.0000000000e+00
7.8000000000e-01 1.0000000000e-02 0.0000000000e+00
7.9000000000e-01 1.0000000000e-02 0.0000000000e+00
8.0000000000e-01 1.0000000000e-02 0.0000000000e+00
8.1000000000e-01 1.0000000000e-02 0.0000000000e+00
8.2000000000e-01 1.0000000000e-02 0.0000000000e+00
8.3000000000e-01 1.0000000000e-02 0.0000000000e+00
8.4000000000e-01 1.0000000000e-02 0.0000000000e+00
8.5000000000e-01 1.0000000000e-02 0.0000000000e+00
8.6000000000e-01 1.0000000000e-02 0.0000000000e+00
8.7000000000e-01 1.0000000000e-02 0.0000000000e+00
8.8000000000e-01 1.0000000000e-02 0.0000000000e+00
8.9000000000e-01 1.0000000000e-02 0.0000000000e+00
9.0000000000e-01 1.0000000000e-02 0.0000000000e+00
9.1000000000e-01 1.0000000000e-02 0.0000000000e+00
9.2000000000e-01 1.0000000000e-02 0.0000000000e+00
[...]
CELL_DATA 10000

SCALARS massDensity float
LOOKUP_TABLE default
1.1926237658e+00
1.1928056275e+00
1.1930676135e+00
1.1934558987e+00
1.1939560716e+00
1.1945504944e+00
1.1952193467e+00
1.1959415597e+00
1.1966959071e+00
1.1974618890e+00
1.1982206565e+00
1.1989556200e+00
1.1996530098e+00
1.2003020832e+00
1.2008952639e+00
1.2014279676e+00
1.2018983966e+00
1.2023071112e+00
1.2026566359e+00
1.2029509429e+00
1.2031950314e+00
1.2033944646e+00
1.2035550374e+00
1.2036824460e+00
1.2037820922e+00
1.2038589017e+00
1.2039172572e+00
1.2039609378e+00
1.2039931423e+00
1.2040165041e+00
1.2040331608e+00
1.2040448030e+00
1.2040527547e+00
1.2040580273e+00
1.2040613904e+00
1.2040634162e+00
1.2040645328e+00
1.2040650555e+00
1.2040652227e+00
1.2040652153e+00
1.2040651784e+00
1.2040652338e+00
1.2040654912e+00
1.2040660568e+00
1.2040670379e+00
1.2040685501e+00
1.2040707178e+00
1.2040736812e+00
1.2040775942e+00
1.2040826321e+00
1.2040889870e+00
1.2040968770e+00
1.2041065389e+00
1.2041182380e+00
1.2041322587e+00
1.2041489136e+00
1.2041685303e+00
1.2041914590e+00
1.2042180523e+00
1.2042486687e+00
1.2042836418e+00
1.2043232750e+00
1.2043677965e+00
1.2044173405e+00
1.2044718859e+00
1.2045312271e+00
1.2045949020e+00
1.2046621640e+00
1.2047319209e+00
1.2048027356e+00
1.2048728074e+00
1.2049400376e+00
1.2050020823e+00
1.2050565045e+00
1.2051008999e+00
1.2051331161e+00
1.2051514055e+00
1.2051546430e+00
1.2051424205e+00
1.2051151710e+00
1.2050741248e+00
1.2050212808e+00
1.2049592049e+00
1.2048908703e+00
1.2048193651e+00
1.2047476965e+00
1.2046785273e+00
1.2046140522e+00
1.2045558594e+00
1.2045049340e+00
1.2044616617e+00
1.2044259375e+00
1.2043972583e+00
1.2043748667e+00
1.2043578592e+00
1.2043453010e+00
1.2043363003e+00
1.2043300685e+00
1.2043259489e+00
1.2043243699e+00
1.1928056275e+00
1.1929962919e+00
1.1932603769e+00
1.1936473258e+00
1.1941435698e+00
1.1947321927e+00
1.1953938506e+00
1.1961079528e+00
1.1968535761e+00
1.1976105765e+00
1.1983603113e+00
1.1990864569e+00
1.1997753715e+00
1.2004164943e+00
1.2010023070e+00
1.2015283287e+00
1.2019927604e+00
1.2023962017e+00
1.2027411324e+00
1.2030315183e+00
1.2032722889e+00
1.2034689749e+00
1.2036272928e+00
1.2037528967e+00
1.2038511136e+00
1.2039268284e+00
1.2039843600e+00
1.2040274537e+00
1.2040592573e+00
1.2040823794e+00
1.2040989190e+00
1.2041105491e+00
1.2041185650e+00
1.2041239649e+00
1.2041274962e+00
1.2041297201e+00
1.2041310457e+00
1.2041317765e+00
1.2041321326e+00
1.2041322798e+00
1.2041323432e+00
1.2041324241e+00
1.2041326080e+00
1.2041329733e+00
1.2041335967e+00
1.2041345564e+00
1.2041359377e+00
1.2041378316e+00
1.2041403417e+00
1.2041435799e+00
1.2041476750e+00
1.2041527651e+00
1.2041590083e+00
1.2041665724e+00
1.2041756471e+00
1.2041864312e+00
1.2041991450e+00
1.2042140151e+00
1.2042312867e+00
1.2042512035e+00
1.2042740186e+00
1.2042999671e+00
1.2043292714e+00
1.2043621032e+00
1.2043985785e+00
1.2044387058e+00
1.2044823702e+00
1.2045292690e+00
1.2045788944e+00
1.2046304704e+00
1.2046829567e+00
1.2047350149e+00
1.2047850646e+00
1.2048313084e+00
1.2048718615e+00
1.2049048406e+00
1.2049285550e+00
1.2049416205e+00
1.2049431548e+00
1.2049328408e+00
1.2049110470e+00
1.2048787692e+00
1.2048376247e+00
1.2047896594e+00
1.2047372354e+00
1.2046827668e+00
1.2046285839e+00
1.2045767029e+00
1.2045287554e+00
1.2044858697e+00
1.2044487037e+00
1.2044174457e+00
1.2043919221e+00
1.2043716690e+00
1.2043560552e+00
1.2043443614e+00
1.2043358719e+00
1.2043299252e+00
1.2043259592e+00
1.2043246118e+00
1.1930676135e+00
1.1932603769e+00
1.1935203151e+00
1.1938994179e+00
1.1943847335e+00
1.1949598612e+00
1.1956061066e+00
1.1963033693e+00
1.1970313456e+00
1.1977703215e+00
1.1985021885e+00
1.1992109499e+00
1.1998833642e+00
1.2005090647e+00
1.2010807772e+00
1.2015940803e+00
1.2020472733e+00
1.2024409042e+00
1.2027774393e+00
1.2030607204e+00
1.2032955956e+00
1.2034874397e+00
1.2036418603e+00
1.2037643561e+00
1.2038601475e+00
1.2039339851e+00
1.2039900994e+00
1.2040321312e+00
1.2040631641e+00
1.2040857313e+00
1.2041018900e+00
1.2041132625e+00
1.2041211192e+00
1.2041264262e+00
1.2041299175e+00
1.2041321342e+00
1.2041334789e+00
1.2041342429e+00
1.2041346425e+00
1.2041348358e+00
1.2041349452e+00
1.2041350663e+00
1.2041352812e+00
1.2041356637e+00
1.2041362852e+00
1.2041372195e+00
1.2041385437e+00
1.2041403439e+00
1.2041427123e+00
1.2041457542e+00
1.2041495830e+00
1.2041543276e+00
1.2041601257e+00
1.2041671327e+00
1.2041755123e+00
1.2041854466e+00
1.2041971250e+00
1.2042107556e+00
1.2042265510e+00
1.2042447410e+00
1.2042655548e+00
1.2042892324e+00
1.2043160001e+00
1.2043460755e+00
1.2043796305e+00
1.2044167842e+00
1.2044575476e+00
1.2045018016e+00
1.2045492264e+00
1.2045992748e+00
1.2046511060e+00
1.2047035830e+00
1.2047552470e+00
1.2048043780e+00
1.2048490420e+00
1.2048872388e+00
1.2049170199e+00
1.2049366995e+00
1.2049449873e+00
1.2049411872e+00
1.2049252524e+00
1.2048978815e+00
1.2048604240e+00
1.2048148343e+00
1.2047634349e+00
1.2047087738e+00
1.2046533375e+00
1.2045994155e+00
1.2045488797e+00
1.2045031431e+00
1.2044630717e+00
1.2044290536e+00
1.2044010289e+00
1.2043786206e+00
1.2043612176e+00
1.2043481017e+00
1.2043385229e+00
1.2043317821e+00
1.2043272720e+00
1.2043257671e+00
1.1934558987e+00
1.1936473258e+00
1.1938994179e+00
1.1942661287e+00
1.1947349371e+00
1.1952901681e+00
1.1959137642e+00
1.1965864754e+00
1.1972886575e+00
1.1980014130e+00
1.1987072006e+00
1.1993906928e+00
1.2000390452e+00
1.2006423470e+00
1.2011935199e+00
1.2016883737e+00
1.2021252180e+00
1.2025046414e+00
1.2028289832e+00
1.2031019954e+00
1.2033283223e+00
1.2035131825e+00
1.2036619587e+00
1.2037799792e+00
1.2038722574e+00
1.2039433929e+00
1.2039974478e+00
1.2040379462e+00
1.2040678471e+00
1.2040896027e+00
1.2041051850e+00
1.2041161655e+00
1.2041237596e+00
1.2041289045e+00
1.2041323005e+00
1.2041344734e+00
1.2041358057e+00
1.2041365812e+00
1.2041370040e+00
1.2041372284e+00
1.2041373687e+00
1.2041375177e+00
1.2041377517e+00
1.2041381405e+00
1.2041387510e+00
1.2041396507e+00
1.2041409123e+00
1.2041426130e+00
1.2041448394e+00
1.2041476846e+00
1.2041512545e+00
1.2041556616e+00
1.2041610333e+00
1.2041675035e+00
1.2041752217e+00
1.2041843434e+00
1.2041950406e+00
1.2042074907e+00
1.2042218897e+00
1.2042384394e+00
1.2042573626e+00
1.2042788881e+00
1.2043032639e+00
1.2043307348e+00
1.2043615461e+00
1.2043959045e+00
1.2044339628e+00
1.2044757567e+00
1.2045211681e+00
1.2045698436e+00
1.2046211539e+00
1.2046741251e+00
1.2047274339e+00
1.2047793993e+00
1.2048280624e+00
1.2048712707e+00
1.2049068599e+00
1.2049328120e+00
1.2049474920e+00
1.2049497952e+00
1.2049393391e+00
1.2049164890e+00
1.2048824119e+00
1.2048389214e+00
1.2047883788e+00
1.2047334019e+00
1.2046766964e+00
1.2046207535e+00
1.2045677306e+00
1.2045192578e+00
1.2044764398e+00
1.2044398113e+00
1.2044094467e+00
1.2043850210e+00
1.2043659582e+00
1.2043515225e+00
1.2043409402e+00
1.2043334667e+00
1.2043284556e+00
1.2043267999e+00
1.1939560716e+00
1.1941435698e+00
1.1943847335e+00
1.1947349371e+00
1.1951822965e+00
1.1957117937e+00
1.1963063418e+00
1.1969475144e+00
1.1976167205e+00
1.1982958606e+00
1.1989683405e+00
1.1996194648e+00
1.2002371033e+00
1.2008117337e+00
1.2013367047e+00
1.2018079600e+00
1.2022239652e+00
1.2025852310e+00
1.2028940459e+00
1.2031539456e+00
1.2033693996e+00
1.2035453490e+00
1.2036869543e+00
1.2037992671e+00
1.2038870862e+00
1.2039547734e+00
1.2040062146e+00
1.2040447501e+00
1.2040732105e+00
1.2040939181e+00
1.2041087600e+00
1.2041192223e+00
1.2041264694e+00
1.2041313853e+00
1.2041346422e+00
1.2041367343e+00
1.2041380301e+00
1.2041387944e+00
1.2041392249e+00
1.2041394644e+00
1.2041396235e+00
1.2041397878e+00
1.2041400303e+00
1.2041404154e+00
1.2041410054e+00
1.2041418632e+00
1.2041430548e+00
1.2041446522e+00
1.2041467327e+00
1.2041493831e+00
1.2041526961e+00
1.2041567756e+00
1.2041617316e+00
1.2041676860e+00
1.2041747659e+00
1.2041831113e+00
1.2041928669e+00
1.2042041930e+00
1.2042172572e+00
1.2042322489e+00
1.2042493712e+00
1.2042688586e+00
1.2042909661e+00
1.2043159828e+00
1.2043442099e+00
1.2043759578e+00
1.2044114993e+00
1.2044510378e+00
1.2044946291e+00
1.2045421226e+00
1.2045930675e+00
1.2046466581e+00
1.2047016716e+00
1.2047564746e+00
1.2048090493e+00
1.2048571130e+00
1.2048982568e+00
1.2049301744e+00
1.2049508614e+00
1.2049588724e+00
1.2049534622e+00
1.2049347481e+00
1.2049036752e+00
1.2048620051e+00
1.2048120800e+00
1.2047566671e+00
1.2046986174e+00
1.2046406861e+00
1.2045852373e+00
1.2045341627e+00
1.2044887358e+00
1.2044496684e+00
1.2044171174e+00
1.2043908313e+00
1.2043702375e+00
1.2043545981e+00
1.2043431002e+00
1.2043349644e+00
1.2043294988e+00
1.2043277014e+00
1.1945504944e+00
1.1947321927e+00
1.1949598612e+00
1.1952901681e+00
1.1957117937e+00
1.1962106826e+00
1.1967706401e+00
1.1973744421e+00
1.1980044768e+00
1.1986438359e+00
1.1992767910e+00
1.1998896331e+00
1.2004708482e+00
1.2010115836e+00
1.2015054998e+00
1.2019488714e+00
1.2023401922e+00
1.2026800166e+00
1.2029704507e+00
1.2032148780e+00
1.2034174682e+00
1.2035829121e+00
1.2037160372e+00
1.2038216265e+00
1.2039041726e+00
1.2039678005e+00
1.2040161480e+00
1.2040523727e+00
1.2040791226e+00
1.2040985938e+00
1.2041125491e+00
1.2041223950e+00
1.2041292172e+00
1.2041338537e+00
1.2041369292e+00
1.2041389137e+00
1.2041401479e+00
1.2041408850e+00
1.2041413063e+00
1.2041415490e+00
1.2041417141e+00
1.2041418836e+00
1.2041421239e+00
1.2041424960e+00
1.2041430568e+00
1.2041438646e+00
1.2041449803e+00
1.2041464687e+00
1.2041484015e+00
1.2041508551e+00
1.2041539149e+00
1.2041576710e+00
1.2041622232e+00
1.2041676748e+00
1.2041741394e+00
1.2041817335e+00
1.2041905857e+00
1.2042008296e+00
1.2042126173e+00
1.2042261153e+00
1.2042415220e+00
1.2042590659e+00
1.2042790252e+00
1.2043017203e+00
1.2043275241e+00
1.2043568348e+00
1.2043900585e+00
1.2044275458e+00
1.2044695344e+00
1.2045160498e+00
1.2045668212e+00
1.2046211805e+00
1.2046780035e+00
1.2047356725e+00
1.2047921159e+00
1.2048448927e+00
1.2048913727e+00
1.2049289394e+00
1.2049552691e+00
1.2049685558e+00
1.2049677680e+00
1.2049527461e+00
1.2049243057e+00
1.2048841085e+00
1.2048345703e+00
1.2047785372e+00
1.2047190852e+00
1.2046591487e+00
1.2046013594e+00
1.2045477864e+00
1.2044999146e+00
1.2044585639e+00
1.2044240036e+00
1.2043960081e+00
1.2043740297e+00
1.2043573019e+00
1.2043449877e+00
1.2043362611e+00
1.2043303945e+00
1.2043284655e+00
1.1952193467e+00
1.1953938506e+00
1.1956061066e+00
1.1959137642e+00
1.1963063418e+00
1.1967706401e+00
1.1972917026e+00
1.1978533851e+00
1.1984394378e+00
1.1990340142e+00
1.1996226204e+00
1.2001923969e+00
1.2007327608e+00
1.2012353866e+00
1.2016944871e+00
1.2021065237e+00
1.2024701836e+00
1.2027859246e+00
1.2030557728e+00
1.2032828297e+00
1.2034710220e+00
1.2036246766e+00
1.2037483171e+00
1.2038463631e+00
1.2039230160e+00
1.2039820888e+00
1.2040269806e+00
1.2040606091e+00
1.2040854483e+00
1.2041035253e+00
1.2041164881e+00
1.2041256326e+00
1.2041319753e+00
1.2041362862e+00
1.2041391518e+00
1.2041410020e+00
1.2041421582e+00
1.2041428506e+00
1.2041432514e+00
1.2041434843e+00
1.2041436459e+00
1.2041438097e+00
1.2041440390e+00
1.2041443888e+00
1.2041449124e+00
1.2041456629e+00
1.2041466958e+00
1.2041480707e+00
1.2041498513e+00
1.2041521076e+00
1.2041549140e+00
1.2041583519e+00
1.2041625059e+00
1.2041674679e+00
1.2041733315e+00
1.2041801985e+00
1.2041881735e+00
1.2041973742e+00
1.2042079290e+00
1.2042199937e+00
1.2042337532e+00
1.2042494444e+00
1.2042673590e+00
1.2042878640e+00
1.2043113931e+00
1.2043384460e+00
1.2043695477e+00
1.2044052046e+00
1.2044458168e+00
1.2044915863e+00
1.2045423971e+00
1.2045977110e+00
1.2046564740e+00
1.2047170760e+00
1.2047773644e+00
1.2048347442e+00
1.2048863430e+00
1.2049292632e+00
1.2049608465e+00
1.2049789874e+00
1.2049823489e+00
1.2049705824e+00
1.2049443382e+00
1.2049052778e+00
1.2048558290e+00
1.2047990120e+00
1.2047380426e+00
1.2046761129e+00
1.2046160274e+00
1.2045600907e+00
1.2045099134e+00
1.2044664639e+00
1.2044300587e+00
1.2044005271e+00
1.2043773056e+00
1.2043596193e+00
1.2043465866e+00
1.2043373492e+00
1.2043311357e+00
1.2043290888e+00
1.1959415597e+00
1.1961079528e+00
1.1963033693e+00
1.1965864754e+00
1.1969475144e+00
1.1973744421e+00
1.1978533851e+00
1.1983696300e+00
1.1989081153e+00
1.1994544163e+00
1.1999950943e+00
1.2005184679e+00
1.2010147083e+00
1.2014762871e+00
1.2018978013e+00
1.2022761010e+00
1.2026099124e+00
1.2028997357e+00
1.2031473796e+00
1.2033557528e+00
1.2035284216e+00
1.2036694032e+00
1.2037828208e+00
1.2038727635e+00
1.2039430651e+00
1.2039972480e+00
1.2040384139e+00
1.2040692568e+00
1.2040920327e+00
1.2041086136e+00
1.2041205000e+00
1.2041288901e+00
1.2041347072e+00
1.2041386649e+00
1.2041412938e+00
1.2041429943e+00
1.2041440552e+00
1.2041446926e+00
1.2041450599e+00
1.2041452745e+00
1.2041454216e+00
1.2041455716e+00
1.2041457804e+00
1.2041461001e+00
1.2041465783e+00
1.2041472642e+00
1.2041482081e+00
1.2041494636e+00
1.2041510884e+00
1.2041531443e+00
1.2041556977e+00
1.2041588181e+00
1.2041625800e+00
1.2041670588e+00
1.2041723350e+00
1.2041784896e+00
1.2041856116e+00
1.2041937960e+00
1.2042031579e+00
1.2042138354e+00
1.2042260122e+00
1.2042399267e+00
1.2042558982e+00
1.2042743328e+00
1.2042957388e+00
1.2043207084e+00
1.2043498953e+00
1.2043839488e+00
1.2044234324e+00
1.2044687058e+00
1.2045197984e+00
1.2045762776e+00
1.2046371432e+00
1.2047007677e+00
1.2047649052e+00
1.2048267865e+00
1.2048833047e+00
1.2049312687e+00
1.2049677260e+00
1.2049902601e+00
1.2049973045e+00
1.2049882981e+00
1.2049638257e+00
1.2049254997e+00
1.2048758657e+00
1.2048180390e+00
1.2047554704e+00
1.2046915100e+00
1.2046292106e+00
1.2045710115e+00
1.2045187032e+00
1.2044733192e+00
1.2044352616e+00
1.2044043568e+00
1.2043800524e+00
1.2043615328e+00
1.2043478907e+00
1.2043382206e+00
1.2043317199e+00
1.2043295684e+00
1.1966959071e+00
1.1968535761e+00
1.1970313456e+00
1.1972886575e+00
1.1976167205e+00
1.1980044768e+00
1.1984394378e+00
1.1989081153e+00
1.1993969664e+00
1.1998927690e+00
1.2003834604e+00
1.2008583224e+00
1.2013085622e+00
1.2017272498e+00
1.2021095932e+00
1.2024526562e+00
1.2027553733e+00
1.2030181382e+00
1.2032426616e+00
1.2034315365e+00
1.2035880496e+00
1.2037158101e+00
1.2038185948e+00
1.2039000856e+00
1.2039637855e+00
1.2040128678e+00
1.2040501636e+00
1.2040780990e+00
1.2040987327e+00
1.2041137486e+00
1.2041245172e+00
1.2041321140e+00
1.2041373838e+00
1.2041409650e+00
1.2041433450e+00
1.2041448801e+00
1.2041458374e+00
1.2041464076e+00
1.2041467343e+00
1.2041469201e+00
1.2041470458e+00
1.2041471724e+00
1.2041473535e+00
1.2041476344e+00
1.2041480600e+00
1.2041486740e+00
1.2041495222e+00
1.2041506527e+00
1.2041521168e+00
1.2041539692e+00
1.2041562670e+00
1.2041590707e+00
1.2041624415e+00
1.2041664430e+00
1.2041711380e+00
1.2041765930e+00
1.2041828764e+00
1.2041900687e+00
1.2041982657e+00
1.2042075985e+00
1.2042182444e+00
1.2042304556e+00
1.2042445743e+00
1.2042610594e+00
1.2042804884e+00
1.2043035572e+00
1.2043310405e+00
1.2043637338e+00
1.2044023517e+00
1.2044474028e+00
1.2044990429e+00
1.2045569250e+00
1.2046200803e+00
1.2046868396e+00
1.2047548447e+00
1.2048211400e+00
1.2048823730e+00
1.2049350765e+00
1.2049759985e+00
1.2050024684e+00
1.2050126782e+00
1.2050059465e+00
1.2049827582e+00
1.2049447873e+00
1.2048946295e+00
1.2048356041e+00
1.2047712989e+00
1.2047053148e+00
1.2046408419e+00
1.2045805247e+00
1.2045262323e+00
1.2044791134e+00
1.2044395790e+00
1.2044074883e+00
1.2043822520e+00
1.2043630389e+00
1.2043488917e+00
1.2043388746e+00
1.2043321443e+00
1.2043299046e+00
1.1974618890e+00
1.1976105765e+00
1.1977703215e+00
1.1980014130e+00
1.1982958606e+00
1.1986438359e+00
1.1990340142e+00
1.1994544163e+00
1.1998927690e+00
1.2003373463e+00
1.2007772111e+00
1.2012028826e+00
1.2016063721e+00
1.2019815843e+00
1.2023241369e+00
1.2026314966e+00
1.2029026406e+00
1.2031380002e+00
1.2033390564e+00
1.2035081922e+00
1.2036483132e+00
1.2037626965e+00
1.2038546958e+00
1.2039276401e+00
1.2039846444e+00
1.2040285726e+00
1.2040619422e+00
1.2040869415e+00
1.2041053996e+00
1.2041188360e+00
1.2041284661e+00
1.2041352617e+00
1.2041399700e+00
1.2041431696e+00
1.2041452895e+00
1.2041466546e+00
1.2041474984e+00
1.2041479965e+00
1.2041482733e+00
1.2041484246e+00
1.2041485197e+00
1.2041486167e+00
1.2041487612e+00
1.2041489966e+00
1.2041493616e+00
1.2041498968e+00
1.2041506425e+00
1.2041516419e+00
1.2041529399e+00
1.2041545840e+00
1.2041566232e+00
1.2041591075e+00
1.2041620874e+00
1.2041656118e+00
1.2041697303e+00
1.2041744911e+00
1.2041799477e+00
1.2041861619e+00
1.2041932189e+00
1.2042012385e+00
1.2042104023e+00
1.2042209736e+00
1.2042333299e+00
1.2042479806e+00
1.2042655844e+00
1.2042869373e+00
1.2043129412e+00
1.2043445307e+00
1.2043825656e+00
1.2044276905e+00
1.2044801667e+00
1.2045397145e+00
1.2046053653e+00
1.2046753905e+00
1.2047472912e+00
1.2048179152e+00
1.2048836588e+00
1.2049407770e+00
1.2049857517e+00
1.2050156566e+00
1.2050285190e+00
1.2050235180e+00
1.2050011465e+00
1.2049630878e+00
1.2049121056e+00
1.2048516333e+00
1.2047855042e+00
1.2047174551e+00
1.2046509008e+00
1.2045885745e+00
1.2045324887e+00
1.2044838108e+00
1.2044430070e+00
1.2044099029e+00
1.2043839053e+00
1.2043641299e+00
1.2043495921e+00
1.2043393092e+00
1.2043324115e+00
1.2043300984e+00
1.1982206565e+00
1.1983603113e+00
1.1985021885e+00
1.1987072006e+00
1.1989683405e+00
1.1992767910e+00
1.1996226204e+00
1.1999950943e+00
1.2003834604e+00
1.2007772111e+00
1.2011667841e+00
1.2015436728e+00
1.2019009210e+00
1.2022330382e+00
1.2025362476e+00
1.2028082318e+00
1.2030481702e+00
1.2032563869e+00
1.2034342591e+00
1.2035838522e+00
1.2037077870e+00
1.2038089303e+00
1.2038902856e+00
1.2039547730e+00
1.2040051736e+00
1.2040440016e+00
1.2040735017e+00
1.2040955941e+00
1.2041119097e+00
1.2041237796e+00
1.2041322888e+00
1.2041382865e+00
1.2041424413e+00
1.2041452568e+00
1.2041471189e+00
1.2041483083e+00
1.2041490373e+00
1.2041494559e+00
1.2041496791e+00
1.2041497876e+00
1.2041498471e+00
1.2041499059e+00
1.2041500078e+00
1.2041501893e+00
1.2041504871e+00
1.2041509357e+00
1.2041515722e+00
1.2041524337e+00
1.2041535595e+00
1.2041549898e+00
1.2041567652e+00
1.2041589263e+00
1.2041615115e+00
1.2041645576e+00
1.2041680983e+00
1.2041721675e+00
1.2041768012e+00
1.2041820483e+00
1.2041879805e+00
1.2041947154e+00
1.2042024372e+00
1.2042114312e+00
1.2042221101e+00
1.2042350454e+00
1.2042509773e+00
1.2042708100e+00
1.2042955703e+00
1.2043263297e+00
1.2043640857e+00
1.2044096003e+00
1.2044632272e+00
1.2045247198e+00
1.2045930941e+00
1.2046665224e+00
1.2047423552e+00
1.2048172174e+00
1.2048872543e+00
1.2049484520e+00
1.2049970320e+00
1.2050298676e+00
1.2050448165e+00
1.2050410163e+00
1.2050189329e+00
1.2049803796e+00
1.2049282119e+00
1.2048660984e+00
1.2047980054e+00
1.2047279099e+00
1.2046593245e+00
1.2045951524e+00
1.2045374334e+00
1.2044874133e+00
1.2044455265e+00
1.2044116075e+00
1.2043850058e+00
1.2043648134e+00
1.2043499917e+00
1.2043395305e+00
1.2043325236e+00
1.2043301551e+00
1.1989556200e+00
1.1990864569e+00
1.1992109499e+00
1.1993906928e+00
1.1996194648e+00
1.1998896331e+00
1.2001923969e+00
1.2005184679e+00
1.2008583224e+00
1.2012028826e+00
1.2015436728e+00
1.2018733663e+00
1.2021857819e+00
1.2024762217e+00
1.2027413031e+00
1.2029790885e+00
1.2031887978e+00
1.2033707855e+00
1.2035262079e+00
1.2036569248e+00
1.2037651913e+00
1.2038535531e+00
1.2039246077e+00
1.2039809359e+00
1.2040249466e+00
1.2040588573e+00
1.2040846124e+00
1.2041039042e+00
1.2041181440e+00
1.2041285058e+00
1.2041359262e+00
1.2041411557e+00
1.2041447694e+00
1.2041472142e+00
1.2041488200e+00
1.2041498383e+00
1.2041504484e+00
1.2041507870e+00
1.2041509499e+00
1.2041510124e+00
1.2041510282e+00
1.2041510437e+00
1.2041510947e+00
1.2041512162e+00
1.2041514384e+00
1.2041517939e+00
1.2041523133e+00
1.2041530300e+00
1.2041539763e+00
1.2041551860e+00
1.2041566913e+00
1.2041585226e+00
1.2041607075e+00
1.2041632694e+00
1.2041662285e+00
1.2041696024e+00
1.2041734137e+00
1.2041776969e+00
1.2041825167e+00
1.2041879877e+00
1.2041943059e+00
1.2042017800e+00
1.2042108691e+00
1.2042222094e+00
1.2042366316e+00
1.2042551504e+00
1.2042789184e+00
1.2043091419e+00
1.2043469417e+00
1.2043931890e+00
1.2044482963e+00
1.2045120379e+00