# vtk DataFile Version 2.0
Blank
ASCII
DATASET STRUCTURED_GRID
DIMENSIONS 101 101 2
POINTS 20402 float
0.0000000000e+00 0.0000000000e+00 0.0000000000e+00
1.0000000000e-02 0.0000000000e+00 0.0000000000e+00
2.0000000000e-02 0.0000000000e+00 0.0000000000e+00
3.0000000000e-02 0.0000000000e+00 0.0000000000e+00
4.0000000000e-02 0.0000000000e+00 0.0000000000e+00
5.0000000000e-02 0.0000000000e+00 0.0000000000e+00
6.0000000000e-02 0.0000000000e+00 0.0000000000e+00
7.0000000000e-02 0.0000000000e+00 0.0000000000e+00
8.0000000000e-02 0.0000000000e+00 0.0000000000e+00
9.0000000000e-02 0.0000000000e+00 0.0000000000e+00
1.0000000000e-01 0.0000000000e+00 0.0000000000e+00
1.1000000000e-01 0.0000000000e+00 0.0000000000e+00
1.2000000000e-01 0.0000000000e+00 0.0000000000e+00
1.3000000000e-01 0.0000000000e+00 0.0000000000e+00
1.4000000000e-01 0.0000000000e+00 0.0000000000e+00
1.5000000000e-01 0.0000000000e+00 0.0000000000e+00
1.6000000000e-01 0.0000000000e+00 0.0000000000e+00
1.7000000000e-01 0.0000000000e+00 0.0000000000e+00
1.8000000000e-01 0.0000000000e+00 0.0000000000e+00
1.9000000000e-01 0.0000000000e+00 0.0000000000e+00
2.0000000000e-01 0.0000000000e+00 0.0000000000e+00
2.1000000000e-01 0.0000000000e+00 0.0000000000e+00
2.2000000000e-01 0.0000000000e+00 0.0000000000e+00
2.3000000000e-01 0.0000000000e+00 0.0000000000e+00
2.4000000000e-01 0.0000000000e+00 0.0000000000e+00
2.5000000000e-01 0.0000000000e+00 0.0000000000e+00
2.6000000000e-01 0.0000000000e+00 0.0000000000e+00
2.7000000000e-01 0.0000000000e+00 0.0000000000e+00
2.8000000000e-01 0.0000000000e+00 0.0000000000e+00
2.9000000000e-01 0.0000000000e+00 0.0000000000e+00
3.0000000000e-01 0.0000000000e+00 0.0000000000e+00
3.1000000000e-01 0.0000000000e+00 0.0000000000e+00
3.2000000000e-01 0.0000000000e+00 0.0000000000e+00
3.3000000000e-01 0.0000000000e+00 0.0000000000e+00
3.4000000000e-01 0.0000000000e+00 0.0000000000e+00
3.5000000000e-01 0.0000000000e+00 0.0000000000e+00
3.6000000000e-01 0.0000000000e+00 0.0000000000e+00
3.7000000000e-01 0.0000000000e+00 0.0000000000e+00
3.8000000000e-01 0.0000000000e+00 0.0000000000e+00
3.9000000000e-01 0.0000000000e+00 0.0000000000e+00
4.0000000000e-01 0.0000000000e+00 0.0000000000e+00
4.1000000000e-01 0.0000000000e+00 0.0000000000e+00
4.2000000000e-01 0.0000000000e+00 0.0000000000e+00
4.3000000000e-01 0.0000000000e+00 0.0000000000e+00
4.4000000000e-01 0.0000000000e+00 0.0000000000e+00
4.5000000000e-01 0.0000000000e+00 0.0000000000e+00
4.6000000000e-01 0.0000000000e+00 0.0000000000e+00
4.7000000000e-01 0.0000000000e+00 0.0000000000e+00
4.8000000000e-01 0.0000000000e+00 0.0000000000e+00
4.9000000000e-01 0.0000000000e+00 0.0000000000e+00
5.0000000000e-01 0.0000000000e+00 0.0000000000e+00
5.1000000000e-01 0.0000000000e+00 0.0000000000e+00
5.2000000000e-01 0.0000000000e+00 0.0000000000e+00
5.3000000000e-01 0.0000000000e+00 0.0000000000e+00
5.4000000000e-01 0.0000000000e+00 0.0000000000e+00
5.5000000000e-01 0.0000000000e+00 0.0000000000e+00
5.6000000000e-01 0.0000000000e+00 0.0000000000e+00
5.7000000000e-01 0.0000000000e+00 0.0000000000e+00
5.8000000000e-01 0.0000000000e+00 0.0000000000e+00
5.9000000000e-01 0.0000000000e+00 0.0000000000e+00
6.0000000000e-01 0.0000000000e+00 0.0000000000e+00
6.1000000000e-01 0.0000000000e+00 0.0000000000e+00
6.2000000000e-01 0.0000000000e+00 0.0000000000e+00
6.3000000000e-01 0.0000000000e+00 0.0000000000e+00
6.4000000000e-01 0.0000000000e+00 0.0000000000e+00
6.5000000000e-01 0.0000000000e+00 0.0000000000e+00
6.6000000000e-01 0.0000000000e+00 0.0000000000e+00
6.7000000000e-01 0.0000000000e+00 0.0000000000e+00
6.8000000000e-01 0.0000000000e+00 0.0000000000e+00
6.9000000000e-01 0.0000000000e+00 0.0000000000e+00
7.0000000000e-01 0.0000000000e+00 0.0000000000e+00
7.1000000000e-01 0.0000000000e+00 0.0000000000e+00
7.2000000000e-01 0.0000000000e+00 0.0000000000e+00
7.3000000000e-01 0.0000000000e+00 0.0000000000e+00
7.4000000000e-01 0.0000000000e+00 0.0000000000e+00
7.5000000000e-01 0.0000000000e+00 0.0000000000e+00
7.6000000000e-01 0.0000000000e+00 0.0000000000e+00
7.7000000000e-01 0.0000000000e+00 0.0000000000e+00
7.8000000000e-01 0.0000000000e+00 0.0000000000e+00
7.9000000000e-01 0.0000000000e+00 0.0000000000e+00
8.0000000000e-01 0.0000000000e+00 0.0000000000e+00
8.1000000000e-01 0.0000000000e+00 0.0000000000e+00
8.2000000000e-01 0.0000000000e+00 0.0000000000e+00
8.3000000000e-01 0.0000000000e+00 0.0000000000e+00
8.4000000000e-01 0.0000000000e+00 0.0000000000e+00
8.5000000000e-01 0.0000000000e+00 0.0000000000e+00
8.6000000000e-01 0.0000000000e+00 0.0000000000e+00
8.7000000000e-01 0.0000000000e+00 0.0000000000e+00
8.8000000000e-01 0.0000000000e+00 0.0000000000e+00
8.9000000000e-01 0.0000000000e+00 0.0000000000e+00
9.0000000000e-01 0.0000000000e+00 0.0000000000e+00
9.1000000000e-01 0.0000000000e+00 0.0000000000e+00
9.2000000000e-01 0.0000000000e+00 0.0000000000e+00
9.3000000000e-01 0.0000000000e+00 0.0000000000e+00
9.4000000000e-01 0.0000000000e+00 0.0000000000e+00
9.5000000000e-01 0.0000000000e+00 0.0000000000e+00
9.6000000000e-01 0.0000000000e+00 0.0000000000e+00
9.7000000000e-01 0.0000000000e+00 0.0000000000e+00
9.8000000000e-01 0.0000000000e+00 0.0000000000e+00
9.9000000000e-01 0.0000000000e+00 0.0000000000e+00
1.0000000000e+00 0.0000000000e+00 0.0000000000e+00
0.0000000000e+00 1.0000000000e-02 0.0000000000e+00
1.0000000000e-02 1.0000000000e-02 0.0000000000e+00
2.0000000000e-02 1.0000000000e-02 0.0000000000e+00
3.0000000000e-02 1.0000000000e-02 0.0000000000e+00
4.0000000000e-02 1.0000000000e-02 0.0000000000e+00
5.0000000000e-02 1.0000000000e-02 0.0000000000e+00
6.0000000000e-02 1.0000000000e-02 0.0000000000e+00
7.0000000000e-02 1.0000000000e-02 0.0000000000e+00
8.0000000000e-02 1.0000000000e-02 0.0000000000e+00
9.0000000000e-02 1.0000000000e-02 0.0000000000e+00
1.0000000000e-01 1.0000000000e-02 0.0000000000e+00
1.1000000000e-01 1.0000000000e-02 0.0000000000e+00
1.2000000000e-01 1.0000000000e-02 0.0000000000e+00
1.3000000000e-01 1.0000000000e-02 0.0000000000e+00
1.4000000000e-01 1.0000000000e-02 0.0000000000e+00
1.5000000000e-01 1.0000000000e-02 0.0000000000e+00
1.6000000000e-01 1.0000000000e-02 0.0000000000e+00
1.7000000000e-01 1.0000000000e-02 0.0000000000e+00
1.8000000000e-01 1.0000000000e-02 0.0000000000e+00
1.9000000000e-01 1.0000000000e-02 0.0000000000e+00
2.0000000000e-01 1.0000000000e-02 0.0000000000e+00
2.1000000000e-01 1.0000000000e-02 0.0000000000e+00
2.2000000000e-01 1.0000000000e-02 0.0000000000e+00
2.3000000000e-01 1.0000000000e-02 0.0000000000e+00
2.4000000000e-01 1.0000000000e-02 0.0000000000e+00
2.5000000000e-01 1.0000000000e-02 0.0000000000e+00
2.6000000000e-01 1.0000000000e-02 0.0000000000e+00
2.7000000000e-01 1.0000000000e-02 0.0000000000e+00
2.8000000000e-01 1.0000000000e-02 0.0000000000e+00
2.9000000000e-01 1.0000000000e-02 0.0000000000e+00
3.0000000000e-01 1.0000000000e-02 0.0000000000e+00
3.1000000000e-01 1.0000000000e-02 0.0000000000e+00
3.2000000000e-01 1.0000000000e-02 0.0000000000e+00
3.3000000000e-01 1.0000000000e-02 0.0000000000e+00
3.4000000000e-01 1.0000000000e-02 0.0000000000e+00
3.5000000000e-01 1.0000000000e-02 0.0000000000e+00
3.6000000000e-01 1.0000000000e-02 0.0000000000e+00
3.7000000000e-01 1.0000000000e-02 0.0000000000e+00
3.8000000000e-01 1.0000000000e-02 0.0000000000e+00
3.9000000000e-01 1.0000000000e-02 0.0000000000e+00
4.0000000000e-01 1.0000000000e-02 0.0000000000e+00
4.1000000000e-01 1.0000000000e-02 0.0000000000e+00
4.2000000000e-01 1.0000000000e-02 0.0000000000e+00
4.3000000000e-01 1.0000000000e-02 0.0000000000e+00
4.4000000000e-01 1.0000000000e-02 0.0000000000e+00
4.5000000000e-01 1.0000000000e-02 0.0000000000e+00
4.6000000000e-01 1.0000000000e-02 0.0000000000e+00
4.7000000000e-01 1.0000000000e-02 0.0000000000e+00
4.8000000000e-01 1.0000000000e-02 0.0000000000e+00
4.9000000000e-01 1.0000000000e-02 0.0000000000e+00
5.0000000000e-01 1.0000000000e-02 0.0000000000e+00
5.1000000000e-01 1.0000000000e-02 0.0000000000e+00
5.2000000000e-01 1.0000000000e-02 0.0000000000e+00
5.3000000000e-01 1.0000000000e-02 0.0000000000e+00
5.4000000000e-01 1.0000000000e-02 0.0000000000e+00
5.5000000000e-01 1.0000000000e-02 0.0000000000e+00
5.6000000000e-01 1.0000000000e-02 0.0000000000e+00
5.7000000000e-01 1.0000000000e-02 0.0000000000e+00
5.8000000000e-01 1.0000000000e-02 0.0000000000e+00
5.9000000000e-01 1.0000000000e-02 0.0000000000e+00
6.0000000000e-01 1.0000000000e-02 0.0000000000e+00
6.1000000000e-01 1.0000000000e-02 0.0000000000e+00
6.2000000000e-01 1.0000000000e-02 0.0000000000e+00
6.3000000000e-01 1.0000000000e-02 0.0000000000e+00
6.4000000000e-01 1.0000000000e-02 0.0000000000e+00
6.5000000000e-01 1.0000000000e-02 0.0000000000e+00
6.6000000000e-01 1.0000000000e-02 0.0000000000e+00
6.7000000000e-01 1.0000000000e-02 0.0000000000e+00
6.8000000000e-01 1.0000000000e-02 0.0000000000e+00
6.9000000000e-01 1.0000000000e-02 0.0000000000e+00
7.0000000000e-01 1.0000000000e-02 0.0000000000e+00
7.1000000000e-01 1.0000000000e-02 0.0000000000e+00
7.2000000000e-01 1.0000000000e-02 0.0000000000e+00
7.3000000000e-01 1.0000000000e-02 0.0000000000e+00
7.4000000000e-01 1.0000000000e-02 0.0000000000e+00
7.5000000000e-01 1.0000000000e-02 0.0000000000e+00
7.6000000000e-01 1.0000000000e-02 0.0000000000e+00
7.7000000000e-01 1.0000000000e-02 0.0000000000e+00
7.8000000000e-01 1.0000000000e-02 0.0000000000e+00
7.9000000000e-01 1.0000000000e-02 0.0000000000e+00
8.0000000000e-01 1.0000000000e-02 0.0000000000e+00
8.1000000000e-01 1.0000000000e-02 0.0000000000e+00
8.2000000000e-01 1.0000000000e-02 0.0000000000e+00
8.3000000000e-01 1.0000000000e-02 0.0000000000e+00
8.4000000000e-01 1.0000000000e-02 0.0000000000e+00
8.5000000000e-01 1.0000000000e-02 0.0000000000e+00
8.6000000000e-01 1.0000000000e-02 0.0000000000e+00
8.7000000000e-01 1.0000000000e-02 0.0000000000e+00
8.8000000000e-01 1.0000000000e-02 0.0000000000e+00
8.9000000000e-01 1.0000000000e-02 0.0000000000e+00
9.0000000000e-01 1.0000000000e-02 0.0000000000e+00
9.1000000000e-01 1.0000000000e-02 0.0000000000e+00
9.2000000000e-01 1.0000000000e-02 0.0000000000e+00
[...]
CELL_DATA 10000

SCALARS massDensity float
LOOKUP_TABLE default
1.2003800017e+00
1.2003903042e+00
1.2004230584e+00
1.2004717227e+00
1.2005357982e+00
1.2006145680e+00
1.2007071162e+00
1.2008123562e+00
1.2009290577e+00
1.2010558779e+00
1.2011913891e+00
1.2013341081e+00
1.2014825226e+00
1.2016351194e+00
1.2017904069e+00
1.2019469405e+00
1.2021033414e+00
1.2022583169e+00
1.2024106738e+00
1.2025593334e+00
1.2027033389e+00
1.2028418636e+00
1.2029742128e+00
1.2030998259e+00
1.2032182730e+00
1.2033292514e+00
1.2034325783e+00
1.2035281829e+00
1.2036160965e+00
1.2036964419e+00
1.2037694214e+00
1.2038353057e+00
1.2038944211e+00
1.2039471385e+00
1.2039938616e+00
1.2040350168e+00
1.2040710428e+00
1.2041023824e+00
1.2041294741e+00
1.2041527461e+00
1.2041726102e+00
1.2041894574e+00
1.2042036548e+00
1.2042155430e+00
1.2042254345e+00
1.2042336134e+00
1.2042403351e+00
1.2042458269e+00
1.2042502899e+00
1.2042538992e+00
1.2042568072e+00
1.2042591443e+00
1.2042610220e+00
1.2042625341e+00
1.2042637597e+00
1.2042647644e+00
1.2042656029e+00
1.2042663198e+00
1.2042669523e+00
1.2042675305e+00
1.2042680795e+00
1.2042686196e+00
1.2042691682e+00
1.2042697393e+00
1.2042703454e+00
1.2042709967e+00
1.2042717027e+00
1.2042724713e+00
1.2042733103e+00
1.2042742263e+00
1.2042752258e+00
1.2042763148e+00
1.2042774991e+00
1.2042787843e+00
1.2042801761e+00
1.2042816800e+00
1.2042833020e+00
1.2042850478e+00
1.2042869242e+00
1.2042889377e+00
1.2042910959e+00
1.2042934065e+00
1.2042958778e+00
1.2042985183e+00
1.2043013365e+00
1.2043043402e+00
1.2043075364e+00
1.2043109299e+00
1.2043145234e+00
1.2043183156e+00
1.2043223013e+00
1.2043264690e+00
1.2043307995e+00
1.2043352619e+00
1.2043398070e+00
1.2043443545e+00
1.2043487739e+00
1.2043528557e+00
1.2043562836e+00
1.2043721307e+00
1.2003903042e+00
1.2003999169e+00
1.2004322880e+00
1.2004807327e+00
1.2005446442e+00
1.2006232409e+00
1.2007155729e+00
1.2008205360e+00
1.2009368961e+00
1.2010633109e+00
1.2011983596e+00
1.2013405666e+00
1.2014884309e+00
1.2016404492e+00
1.2017951434e+00
1.2019510804e+00
1.2021068953e+00
1.2022613072e+00
1.2024131368e+00
1.2025613162e+00
1.2027049007e+00
1.2028430726e+00
1.2029751466e+00
1.2031005680e+00
1.2032189126e+00
1.2033298800e+00
1.2034332889e+00
1.2035290671e+00
1.2036172431e+00
1.2036979347e+00
1.2037713379e+00
1.2038377153e+00
1.2038973845e+00
1.2039507063e+00
1.2039980742e+00
1.2040399036e+00
1.2040766229e+00
1.2041086644e+00
1.2041364572e+00
1.2041604204e+00
1.2041809576e+00
1.2041984532e+00
1.2042132683e+00
1.2042257389e+00
1.2042361739e+00
1.2042448549e+00
1.2042520356e+00
1.2042579429e+00
1.2042627775e+00
1.2042667157e+00
1.2042699103e+00
1.2042724937e+00
1.2042745783e+00
1.2042762602e+00
1.2042776197e+00
1.2042787243e+00
1.2042796294e+00
1.2042803814e+00
1.2042810179e+00
1.2042815698e+00
1.2042820622e+00
1.2042825159e+00
1.2042829472e+00
1.2042833703e+00
1.2042837962e+00
1.2042842346e+00
1.2042846932e+00
1.2042851791e+00
1.2042856981e+00
1.2042862556e+00
1.2042868562e+00
1.2042875046e+00
1.2042882047e+00
1.2042889610e+00
1.2042897775e+00
1.2042906585e+00
1.2042916086e+00
1.2042926329e+00
1.2042937366e+00
1.2042949259e+00
1.2042962073e+00
1.2042975881e+00
1.2042990761e+00
1.2043006797e+00
1.2043024073e+00
1.2043042678e+00
1.2043062692e+00
1.2043084193e+00
1.2043107243e+00
1.2043131888e+00
1.2043158152e+00
1.2043186030e+00
1.2043215475e+00
1.2043246394e+00
1.2043278615e+00
1.2043311874e+00
1.2043345786e+00
1.2043379888e+00
1.2043413826e+00
1.2043582210e+00
1.2004230584e+00
1.2004322880e+00
1.2004641650e+00
1.2005120701e+00
1.2005753700e+00
1.2006532680e+00
1.2007448067e+00
1.2008488838e+00
1.2009642694e+00
1.2010896318e+00
1.2012235597e+00
1.2013645912e+00
1.2015112368e+00
1.2016620080e+00
1.2018154381e+00
1.2019701083e+00
1.2021246646e+00
1.2022778389e+00
1.2024284609e+00
1.2025754736e+00
1.2027179389e+00
1.2028550473e+00
1.2029861175e+00
1.2031106000e+00
1.2032280720e+00
1.2033382353e+00
1.2034409077e+00
1.2035360165e+00
1.2036235875e+00
1.2037037359e+00
1.2037766536e+00
1.2038425996e+00
1.2039018865e+00
1.2039548709e+00
1.2040019414e+00
1.2040435093e+00
1.2040799986e+00
1.2041118379e+00
1.2041394526e+00
1.2041632587e+00
1.2041836574e+00
1.2042010307e+00
1.2042157379e+00
1.2042281133e+00
1.2042384649e+00
1.2042470729e+00
1.2042541905e+00
1.2042600438e+00
1.2042648330e+00
1.2042687334e+00
1.2042718978e+00
1.2042744575e+00
1.2042765248e+00
1.2042781945e+00
1.2042795467e+00
1.2042806476e+00
1.2042815525e+00
1.2042823062e+00
1.2042829459e+00
1.2042835014e+00
1.2042839971e+00
1.2042844525e+00
1.2042848836e+00
1.2042853030e+00
1.2042857215e+00
1.2042861474e+00
1.2042865881e+00
1.2042870494e+00
1.2042875367e+00
1.2042880542e+00
1.2042886064e+00
1.2042891966e+00
1.2042898288e+00
1.2042905064e+00
1.2042912331e+00
1.2042920128e+00
1.2042928498e+00
1.2042937488e+00
1.2042947151e+00
1.2042957548e+00
1.2042968746e+00
1.2042980820e+00
1.2042993854e+00
1.2043007935e+00
1.2043023159e+00
1.2043039622e+00
1.2043057423e+00
1.2043076655e+00
1.2043097407e+00
1.2043119753e+00
1.2043143759e+00
1.2043169468e+00
1.2043196903e+00
1.2043226063e+00
1.2043256922e+00
1.2043289440e+00
1.2043323601e+00
1.2043359514e+00
1.2043397665e+00
1.2043571139e+00
1.2004717227e+00
1.2004807327e+00
1.2005120701e+00
1.2005592730e+00
1.2006217110e+00
1.2006985877e+00
1.2007889516e+00
1.2008917073e+00
1.2010056387e+00
1.2011294272e+00
1.2012616801e+00
1.2014009519e+00
1.2015457739e+00
1.2016946749e+00
1.2018462091e+00
1.2019989744e+00
1.2021516364e+00
1.2023029415e+00
1.2024517365e+00
1.2025969762e+00
1.2027377362e+00
1.2028732151e+00
1.2030027414e+00
1.2031257703e+00
1.2032418844e+00
1.2033507868e+00
1.2034522969e+00
1.2035463404e+00
1.2036329415e+00
1.2037122113e+00
1.2037843381e+00
1.2038495750e+00
1.2039082296e+00
1.2039606522e+00
1.2040072256e+00
1.2040483549e+00
1.2040844584e+00
1.2041159590e+00
1.2041432772e+00
1.2041668243e+00
1.2041869972e+00
1.2042041742e+00
1.2042187113e+00
1.2042309401e+00
1.2042411658e+00
1.2042496668e+00
1.2042566942e+00
1.2042624727e+00
1.2042672007e+00
1.2042710527e+00
1.2042741796e+00
1.2042767121e+00
1.2042787610e+00
1.2042804204e+00
1.2042817688e+00
1.2042828718e+00
1.2042837831e+00
1.2042845471e+00
1.2042851993e+00
1.2042857690e+00
1.2042862792e+00
1.2042867486e+00
1.2042871922e+00
1.2042876218e+00
1.2042880470e+00
1.2042884755e+00
1.2042889136e+00
1.2042893664e+00
1.2042898383e+00
1.2042903330e+00
1.2042908539e+00
1.2042914039e+00
1.2042919860e+00
1.2042926031e+00
1.2042932584e+00
1.2042939552e+00
1.2042946973e+00
1.2042954891e+00
1.2042963358e+00
1.2042972432e+00
1.2042982179e+00
1.2042992677e+00
1.2043004010e+00
1.2043016273e+00
1.2043029566e+00
1.2043043995e+00
1.2043059671e+00
1.2043076704e+00
1.2043095203e+00
1.2043115273e+00
1.2043137011e+00
1.2043160508e+00
1.2043185848e+00
1.2043213111e+00
1.2043242384e+00
1.2043273785e+00
1.2043307512e+00
1.2043343941e+00
1.2043383802e+00
1.2043556105e+00
1.2005357982e+00
1.2005446442e+00
1.2005753700e+00
1.2006217110e+00
1.2006830493e+00
1.2007586013e+00
1.2008474268e+00
1.2009484478e+00
1.2010604646e+00
1.2011821813e+00
1.2013122260e+00
1.2014491794e+00
1.2015915952e+00
1.2017380296e+00
1.2018870594e+00
1.2020373088e+00
1.2021874638e+00
1.2023362948e+00
1.2024826661e+00
1.2026255522e+00
1.2027640420e+00
1.2028973494e+00
1.2030248115e+00
1.2031458934e+00
1.2032601822e+00
1.2033673858e+00
1.2034673237e+00
1.2035599222e+00
1.2036452022e+00
1.2037232718e+00
1.2037943135e+00
1.2038585751e+00
1.2039163567e+00
1.2039680020e+00
1.2040138859e+00
1.2040544063e+00
1.2040899740e+00
1.2041210049e+00
1.2041479126e+00
1.2041711023e+00
1.2041909653e+00
1.2042078746e+00
1.2042221815e+00
1.2042342135e+00
1.2042442723e+00
1.2042526328e+00
1.2042595436e+00
1.2042652263e+00
1.2042698777e+00
1.2042736696e+00
1.2042767517e+00
1.2042792524e+00
1.2042812813e+00
1.2042829306e+00
1.2042842777e+00
1.2042853866e+00
1.2042863100e+00
1.2042870906e+00
1.2042877632e+00
1.2042883555e+00
1.2042888897e+00
1.2042893832e+00
1.2042898501e+00
1.2042903012e+00
1.2042907452e+00
1.2042911888e+00
1.2042916374e+00
1.2042920952e+00
1.2042925659e+00
1.2042930523e+00
1.2042935569e+00
1.2042940820e+00
1.2042946298e+00
1.2042952025e+00
1.2042958025e+00
1.2042964327e+00
1.2042970964e+00
1.2042977975e+00
1.2042985407e+00
1.2042993315e+00
1.2043001765e+00
1.2043010834e+00
1.2043020606e+00
1.2043031178e+00
1.2043042655e+00
1.2043055152e+00
1.2043068786e+00
1.2043083682e+00
1.2043099967e+00
1.2043117767e+00
1.2043137211e+00
1.2043158425e+00
1.2043181542e+00
1.2043206702e+00
1.2043234070e+00
1.2043263857e+00
1.2043296367e+00
1.2043332063e+00
1.2043371674e+00
1.2043538567e+00
1.2006145680e+00
1.2006232409e+00
1.2006532680e+00
1.2006985877e+00
1.2007586013e+00
1.2008325411e+00
1.2009194876e+00
1.2010183823e+00
1.2011280517e+00
1.2012472242e+00
1.2013745584e+00
1.2015086624e+00
1.2016481228e+00
1.2017915239e+00
1.2019374753e+00
1.2020846277e+00
1.2022316981e+00
1.2023774801e+00
1.2025208646e+00
1.2026608451e+00
1.2027965319e+00
1.2029271525e+00
1.2030520593e+00
1.2031707258e+00
1.2032827480e+00
1.2033878369e+00
1.2034858156e+00
1.2035766087e+00
1.2036602358e+00
1.2037367999e+00
1.2038064787e+00
1.2038695121e+00
1.2039261934e+00
1.2039768569e+00
1.2040218694e+00
1.2040616195e+00
1.2040965092e+00
1.2041269459e+00
1.2041533351e+00
1.2041760742e+00
1.2041955472e+00
1.2042121208e+00
1.2042261403e+00
1.2042379278e+00
1.2042477802e+00
1.2042559683e+00
1.2042627365e+00
1.2042683035e+00
1.2042728626e+00
1.2042765832e+00
1.2042796123e+00
1.2042820762e+00
1.2042840822e+00
1.2042857210e+00
1.2042870679e+00
1.2042881855e+00
1.2042891246e+00
1.2042899269e+00
1.2042906255e+00
1.2042912471e+00
1.2042918124e+00
1.2042923380e+00
1.2042928366e+00
1.2042933183e+00
1.2042937905e+00
1.2042942591e+00
1.2042947286e+00
1.2042952025e+00
1.2042956833e+00
1.2042961731e+00
1.2042966737e+00
1.2042971865e+00
1.2042977130e+00
1.2042982545e+00
1.2042988130e+00
1.2042993905e+00
1.2042999897e+00
1.2043006140e+00
1.2043012676e+00
1.2043019556e+00
1.2043026844e+00
1.2043034611e+00
1.2043042944e+00
1.2043051939e+00
1.2043061703e+00
1.2043072353e+00
1.2043084017e+00
1.2043096827e+00
1.2043110923e+00
1.2043126449e+00
1.2043143555e+00
1.2043162395e+00
1.2043183135e+00
1.2043205956e+00
1.2043231067e+00
1.2043258729e+00
1.2043289276e+00
1.2043323172e+00
1.2043361050e+00
1.2043519648e+00
1.2007071162e+00
1.2007155729e+00
1.2007448067e+00
1.2007889516e+00
1.2008474268e+00
1.2009194876e+00
1.2010042359e+00
1.2011006421e+00
1.2012075590e+00
1.2013237494e+00
1.2014479028e+00
1.2015786650e+00
1.2017146555e+00
1.2018544973e+00
1.2019968325e+00
1.2021403491e+00
1.2022837934e+00
1.2024259928e+00
1.2025658631e+00
1.2027024257e+00
1.2028348105e+00
1.2029622660e+00
1.2030841579e+00
1.2031999738e+00
1.2033093165e+00
1.2034119046e+00
1.2035075620e+00
1.2035962148e+00
1.2036778789e+00
1.2037526538e+00
1.2038207099e+00
1.2038822803e+00
1.2039376485e+00
1.2039871401e+00
1.2040311113e+00
1.2040699406e+00
1.2041040198e+00
1.2041337463e+00
1.2041595160e+00
1.2041817172e+00
1.2042007257e+00
1.2042168999e+00
1.2042305784e+00
1.2042420766e+00
1.2042516856e+00
1.2042596708e+00
1.2042662722e+00
1.2042717039e+00
1.2042761558e+00
1.2042797936e+00
1.2042827615e+00
1.2042851829e+00
1.2042871628e+00
1.2042887893e+00
1.2042901361e+00
1.2042912633e+00
1.2042922206e+00
1.2042930476e+00
1.2042937761e+00
1.2042944313e+00
1.2042950329e+00
1.2042955961e+00
1.2042961325e+00
1.2042966511e+00
1.2042971584e+00
1.2042976593e+00
1.2042981574e+00
1.2042986552e+00
1.2042991546e+00
1.2042996567e+00
1.2043001624e+00
1.2043006725e+00
1.2043011875e+00
1.2043017082e+00
1.2043022356e+00
1.2043027713e+00
1.2043033170e+00
1.2043038757e+00
1.2043044508e+00
1.2043050472e+00
1.2043056704e+00
1.2043063276e+00
1.2043070269e+00
1.2043077778e+00
1.2043085911e+00
1.2043094786e+00
1.2043104534e+00
1.2043115294e+00
1.2043127212e+00
1.2043140447e+00
1.2043155160e+00
1.2043171525e+00
1.2043189727e+00
1.2043209971e+00
1.2043232487e+00
1.2043257549e+00
1.2043285489e+00
1.2043316724e+00
1.2043351777e+00
1.2043500113e+00
1.2008123562e+00
1.2008205360e+00
1.2008488838e+00
1.2008917073e+00
1.2009484478e+00
1.2010183823e+00
1.2011006421e+00
1.2011942252e+00
1.2012980211e+00
1.2014108256e+00
1.2015313699e+00
1.2016583361e+00
1.2017903880e+00
1.2019261857e+00
1.2020644146e+00
1.2022037982e+00
1.2023431232e+00
1.2024812481e+00
1.2026171234e+00
1.2027497962e+00
1.2028784239e+00
1.2030022739e+00
1.2031207317e+00
1.2032332965e+00
1.2033395832e+00
1.2034393149e+00
1.2035323208e+00
1.2036185252e+00
1.2036979433e+00
1.2037706681e+00
1.2038368645e+00
1.2038967558e+00
1.2039506169e+00
1.2039987619e+00
1.2040415363e+00
1.2040793068e+00
1.2041124540e+00
1.2041413639e+00
1.2041664215e+00
1.2041880049e+00
1.2042064800e+00
1.2042221966e+00
1.2042354846e+00
1.2042466522e+00
1.2042559834e+00
1.2042637377e+00
1.2042701492e+00
1.2042754275e+00
1.2042797575e+00
1.2042833016e+00
1.2042861998e+00
1.2042885727e+00
1.2042905222e+00
1.2042921340e+00
1.2042934791e+00
1.2042946160e+00
1.2042955919e+00
1.2042964449e+00
1.2042972053e+00
1.2042978966e+00
1.2042985372e+00
1.2042991411e+00
1.2042997188e+00
1.2043002780e+00
1.2043008245e+00
1.2043013620e+00
1.2043018934e+00
1.2043024201e+00
1.2043029433e+00
1.2043034632e+00
1.2043039800e+00
1.2043044935e+00
1.2043050038e+00
1.2043055105e+00
1.2043060142e+00
1.2043065153e+00
1.2043070154e+00
1.2043075163e+00
1.2043080211e+00
1.2043085337e+00
1.2043090595e+00
1.2043096048e+00
1.2043101774e+00
1.2043107865e+00
1.2043114427e+00
1.2043121577e+00
1.2043129445e+00
1.2043138173e+00
1.2043147914e+00
1.2043158827e+00
1.2043171087e+00
1.2043184874e+00
1.2043200385e+00
1.2043217831e+00
1.2043237449e+00
1.2043259507e+00
1.2043284313e+00
1.2043312228e+00
1.2043343665e+00
1.2043480422e+00
1.2009290577e+00
1.2009368961e+00
1.2009642694e+00
1.2010056387e+00
1.2010604646e+00
1.2011280517e+00
1.2012075590e+00
1.2012980211e+00
1.2013983617e+00
1.2015074204e+00
1.2016239674e+00
1.2017467327e+00
1.2018744212e+00
1.2020057420e+00
1.2021394209e+00
1.2022742280e+00
1.2024089871e+00
1.2025425982e+00
1.2026740437e+00
1.2028024051e+00
1.2029268644e+00
1.2030467153e+00
1.2031613603e+00
1.2032703160e+00
1.2033732066e+00
1.2034697644e+00
1.2035598204e+00
1.2036433013e+00
1.2037202178e+00
1.2037906593e+00
1.2038547819e+00
1.2039128011e+00
1.2039649800e+00
1.2040116218e+00
1.2040530594e+00
1.2040896473e+00
1.2041217531e+00
1.2041497506e+00
1.2041740128e+00
1.2041949063e+00
1.2042127863e+00
1.2042279924e+00
1.2042408454e+00
1.2042516447e+00
1.2042606669e+00
1.2042681643e+00
1.2042743651e+00
1.2042794726e+00
1.2042836674e+00
1.2042871066e+00
1.2042899269e+00
1.2042922447e+00
1.2042941591e+00
1.2042957525e+00
1.2042970935e+00
1.2042982382e+00
1.2042992318e+00
1.2043001103e+00
1.2043009024e+00
1.2043016300e+00
1.2043023101e+00
1.2043029554e+00
1.2043035751e+00
1.2043041761e+00
1.2043047629e+00
1.2043053385e+00
1.2043059046e+00
1.2043064621e+00
1.2043070110e+00
1.2043075511e+00
1.2043080815e+00
1.2043086014e+00
1.2043091098e+00
1.2043096062e+00
1.2043100897e+00
1.2043105606e+00
1.2043110191e+00
1.2043114669e+00
1.2043119059e+00
1.2043123397e+00
1.2043127726e+00
1.2043132108e+00
1.2043136612e+00
1.2043141327e+00
1.2043146353e+00
1.2043151805e+00
1.2043157812e+00
1.2043164513e+00
1.2043172061e+00
1.2043180620e+00
1.2043190363e+00
1.2043201476e+00
1.2043214156e+00
1.2043228615e+00
1.2043245083e+00
1.2043263812e+00
1.2043285079e+00
1.2043309188e+00
1.2043336465e+00
1.2043460775e+00
1.2010558779e+00
1.2010633109e+00
1.2010896318e+00
1.2011294272e+00
1.2011821813e+00
1.2012472242e+00
1.2013237494e+00
1.2014108256e+00
1.2015074204e+00
1.2016124138e+00
1.2017246257e+00
1.2018428307e+00
1.2019657864e+00
1.2020922465e+00
1.2022209890e+00
1.2023508264e+00
1.2024806305e+00
1.2026093391e+00
1.2027359757e+00
1.2028596526e+00
1.2029795849e+00
1.2030950888e+00
1.2032055906e+00
1.2033106210e+00
1.2034098187e+00
1.2035029220e+00
1.2035897681e+00
1.2036702822e+00
1.2037444741e+00
1.2038124264e+00
1.2038742885e+00
1.2039302649e+00
1.2039806084e+00
1.2040256092e+00
1.2040655873e+00
1.2041008835e+00
1.2041318519e+00
1.2041588528e+00
1.2041822462e+00
1.2042023864e+00
1.2042196166e+00
1.2042342656e+00
1.2042466438e+00
1.2042570416e+00
1.2042657268e+00
1.2042729442e+00
1.2042789147e+00
1.2042838360e+00
1.2042878824e+00
1.2042912066e+00
1.2042939402e+00
1.2042961962e+00
1.2042980697e+00
1.2042996402e+00
1.2043009734e+00
1.2043021227e+00
1.2043031311e+00
1.2043040328e+00
1.2043048543e+00
1.2043056162e+00
1.2043063338e+00
1.2043070186e+00
1.2043076787e+00
1.2043083197e+00
1.2043089452e+00
1.2043095571e+00
1.2043101566e+00
1.2043107433e+00
1.2043113169e+00
1.2043118759e+00
1.2043124192e+00
1.2043129447e+00
1.2043134512e+00
1.2043139368e+00
1.2043144005e+00
1.2043148414e+00
1.2043152594e+00
1.2043156549e+00
1.2043160296e+00
1.2043163859e+00
1.2043167279e+00
1.2043170605e+00
1.2043173905e+00
1.2043177258e+00
1.2043180761e+00
1.2043184523e+00
1.2043188668e+00
1.2043193332e+00
1.2043198667e+00
1.2043204832e+00
1.2043212000e+00
1.2043220354e+00
1.2043230088e+00
1.2043241408e+00
1.2043254530e+00
1.2043269688e+00
1.2043287125e+00
1.2043307096e+00
1.2043329857e+00
1.2043441171e+00
1.2011913891e+00
1.2011983596e+00
1.2012235597e+00
1.2012616801e+00
1.2013122260e+00
1.2013745584e+00
1.2014479028e+00
1.2015313699e+00
1.2016239674e+00
1.2017246257e+00
1.2018322108e+00
1.2019455522e+00
1.2020634555e+00
1.2021847309e+00
1.2023082033e+00
1.2024327389e+00
1.2025572524e+00
1.2026807296e+00
1.2028022307e+00
1.2029209076e+00
1.2030360040e+00
1.2031468665e+00
1.2032529408e+00
1.2033537781e+00
1.2034490278e+00
1.2035384390e+00
1.2036218514e+00
1.2036991927e+00
1.2037704685e+00
1.2038357569e+00
1.2038951979e+00
1.2039489868e+00
1.2039973635e+00
1.2040406058e+00
1.2040790192e+00
1.2041129305e+00
1.2041426792e+00
1.2041686113e+00
1.2041910731e+00
1.2042104053e+00
1.2042269387e+00
1.2042409901e+00
1.2042528594e+00
1.2042628265e+00
1.2042711502e+00
1.2042780669e+00
1.2042837901e+00
1.2042885105e+00
1.2042923966e+00
1.2042955953e+00
1.2042982339e+00
1.2043004206e+00
1.2043022469e+00
1.2043037888e+00
1.2043051090e+00
1.2043062582e+00
1.2043072770e+00
1.2043081974e+00
1.2043090441e+00
1.2043098359e+00
1.2043105868e+00
1.2043113067e+00
1.2043120026e+00
1.2043126791e+00
1.2043133387e+00
1.2043139826e+00
1.2043146107e+00
1.2043152223e+00
1.2043158159e+00
1.2043163898e+00
1.2043169414e+00
1.2043174688e+00
1.2043179692e+00
1.2043184409e+00
1.2043188814e+00
1.2043192895e+00
1.2043196641e+00
1.2043200053e+00
1.2043203135e+00
1.2043205910e+00
1.2043208404e+00
1.2043210666e+00
1.2043212750e+00
1.2043214734e+00
1.2043216704e+00
1.2043218765e+00
1.2043221033e+00
1.2043223643e+00
1.2043226736e+00
1.2043230472e+00
1.2043235014e+00
1.2043240543e+00
1.2043247244e+00
1.2043255313e+00
1.2043264953e+00
1.2043276375e+00
1.2043289795e+00
1.2043305425e+00
1.2043323470e+00
1.2043421455e+00
1.2013341081e+00
1.2013405666e+00
1.2013645912e+00
1.2014009519e+00
1.2014491794e+00
1.2015086624e+00
1.2015786650e+00
1.2016583361e+00
1.2017467327e+00
1.2018428307e+00
1.2019455522e+00
1.2020537765e+00
1.2021663684e+00
1.2022821884e+00
1.2024001198e+00
1.2025190764e+00
1.2026380267e+00
1.2027559986e+00
1.2028720984e+00
1.2029855127e+00
1.2030955220e+00
1.2032014981e+00
1.2033029136e+00
1.2033993354e+00
1.2034904292e+00
1.2035759510e+00
1.2036557473e+00
1.2037297449e+00
1.2037979481e+00
1.2038604277e+00
1.2039173164e+00
1.2039687977e+00
1.2040150999e+00
1.2040564862e+00
1.2040932484e+00
1.2041256976e+00
1.2041541585e+00
1.2041789621e+00
1.2042004398e+00
1.2042189186e+00
1.2042347158e+00
1.2042481360e+00
1.2042594671e+00
1.2042689787e+00
1.2042769197e+00
1.2042835178e+00
1.2042889782e+00
1.2042934846e+00
1.2042971989e+00
1.2043002625e+00
1.2043027971e+00
1.2043049067e+00
1.2043066785e+00
1.2043081850e+00
1.2043094857e+00
1.2043106284e+00
1.2043116512e+00
1.2043125840e+00
1.2043134494e+00
1.2043142646e+00
1.2043150420e+00
1.2043157902e+00
1.2043165150e+00
1.2043172197e+00
1.2043179061e+00
1.2043185743e+00
1.2043192237e+00
1.2043198525e+00
1.2043204588e+00
1.2043210398e+00
1.2043215928e+00
1.2043221145e+00