# vtk DataFile Version 2.0
Blank
ASCII
DATASET STRUCTURED_GRID
DIMENSIONS 101 101 2
POINTS 20402 float
0.0000000000e+00 0.0000000000e+00 0.0000000000e+00
1.0000000000e-02 0.0000000000e+00 0.0000000000e+00
2.0000000000e-02 0.0000000000e+00 0.0000000000e+00
3.0000000000e-02 0.0000000000e+00 0.0000000000e+00
4.0000000000e-02 0.0000000000e+00 0.0000000000e+00
5.0000000000e-02 0.0000000000e+00 0.0000000000e+00
6.0000000000e-02 0.0000000000e+00 0.0000000000e+00
7.0000000000e-02 0.0000000000e+00 0.0000000000e+00
8.0000000000e-02 0.0000000000e+00 0.0000000000e+00
9.0000000000e-02 0.0000000000e+00 0.0000000000e+00
1.0000000000e-01 0.0000000000e+00 0.0000000000e+00
1.1000000000e-01 0.0000000000e+00 0.0000000000e+00
1.2000000000e-01 0.0000000000e+00 0.0000000000e+00
1.3000000000e-01 0.0000000000e+00 0.0000000000e+00
1.4000000000e-01 0.0000000000e+00 0.0000000000e+00
1.5000000000e-01 0.0000000000e+00 0.0000000000e+00
1.6000000000e-01 0.0000000000e+00 0.0000000000e+00
1.7000000000e-01 0.0000000000e+00 0.0000000000e+00
1.8000000000e-01 0.0000000000e+00 0.0000000000e+00
1.9000000000e-01 0.0000000000e+00 0.0000000000e+00
2.0000000000e-01 0.0000000000e+00 0.0000000000e+00
2.1000000000e-01 0.0000000000e+00 0.0000000000e+00
2.2000000000e-01 0.0000000000e+00 0.0000000000e+00
2.3000000000e-01 0.0000000000e+00 0.0000000000e+00
2.4000000000e-01 0.0000000000e+00 0.0000000000e+00
2.5000000000e-01 0.0000000000e+00 0.0000000000e+00
2.6000000000e-01 0.0000000000e+00 0.0000000000e+00
2.7000000000e-01 0.0000000000e+00 0.0000000000e+00
2.8000000000e-01 0.0000000000e+00 0.0000000000e+00
2.9000000000e-01 0.0000000000e+00 0.0000000000e+00
3.0000000000e-01 0.0000000000e+00 0.0000000000e+00
3.1000000000e-01 0.0000000000e+00 0.0000000000e+00
3.2000000000e-01 0.0000000000e+00 0.0000000000e+00
3.3000000000e-01 0.0000000000e+00 0.0000000000e+00
3.4000000000e-01 0.0000000000e+00 0.0000000000e+00
3.5000000000e-01 0.0000000000e+00 0.0000000000e+00
3.6000000000e-01 0.0000000000e+00 0.0000000000e+00
3.7000000000e-01 0.0000000000e+00 0.0000000000e+00
3.8000000000e-01 0.0000000000e+00 0.0000000000e+00
3.9000000000e-01 0.0000000000e+00 0.0000000000e+00
4.0000000000e-01 0.0000000000e+00 0.0000000000e+00
4.1000000000e-01 0.0000000000e+00 0.0000000000e+00
4.2000000000e-01 0.0000000000e+00 0.0000000000e+00
4.3000000000e-01 0.0000000000e+00 0.0000000000e+00
4.4000000000e-01 0.0000000000e+00 0.0000000000e+00
4.5000000000e-01 0.0000000000e+00 0.0000000000e+00
4.6000000000e-01 0.0000000000e+00 0.0000000000e+00
4.7000000000e-01 0.0000000000e+00 0.0000000000e+00
4.8000000000e-01 0.0000000000e+00 0.0000000000e+00
4.9000000000e-01 0.0000000000e+00 0.0000000000e+00
5.0000000000e-01 0.0000000000e+00 0.0000000000e+00
5.1000000000e-01 0.0000000000e+00 0.0000000000e+00
5.2000000000e-01 0.0000000000e+00 0.0000000000e+00
5.3000000000e-01 0.0000000000e+00 0.0000000000e+00
5.4000000000e-01 0.0000000000e+00 0.0000000000e+00
5.5000000000e-01 0.0000000000e+00 0.0000000000e+00
5.6000000000e-01 0.0000000000e+00 0.0000000000e+00
5.7000000000e-01 0.0000000000e+00 0.0000000000e+00
5.8000000000e-01 0.0000000000e+00 0.0000000000e+00
5.9000000000e-01 0.0000000000e+00 0.0000000000e+00
6.0000000000e-01 0.0000000000e+00 0.0000000000e+00
6.1000000000e-01 0.0000000000e+00 0.0000000000e+00
6.2000000000e-01 0.0000000000e+00 0.0000000000e+00
6.3000000000e-01 0.0000000000e+00 0.0000000000e+00
6.4000000000e-01 0.0000000000e+00 0.0000000000e+00
6.5000000000e-01 0.0000000000e+00 0.0000000000e+00
6.6000000000e-01 0.0000000000e+00 0.0000000000e+00
6.7000000000e-01 0.0000000000e+00 0.0000000000e+00
6.8000000000e-01 0.0000000000e+00 0.0000000000e+00
6.9000000000e-01 0.0000000000e+00 0.0000000000e+00
7.0000000000e-01 0.0000000000e+00 0.0000000000e+00
7.1000000000e-01 0.0000000000e+00 0.0000000000e+00
7.2000000000e-01 0.0000000000e+00 0.0000000000e+00
7.3000000000e-01 0.0000000000e+00 0.0000000000e+00
7.4000000000e-01 0.0000000000e+00 0.0000000000e+00
7.5000000000e-01 0.0000000000e+00 0.0000000000e+00
7.6000000000e-01 0.0000000000e+00 0.0000000000e+00
7.7000000000e-01 0.0000000000e+00 0.0000000000e+00
7.8000000000e-01 0.0000000000e+00 0.0000000000e+00
7.9000000000e-01 0.0000000000e+00 0.0000000000e+00
8.0000000000e-01 0.0000000000e+00 0.0000000000e+00
8.1000000000e-01 0.0000000000e+00 0.0000000000e+00
8.2000000000e-01 0.0000000000e+00 0.0000000000e+00
8.3000000000e-01 0.0000000000e+00 0.0000000000e+00
8.4000000000e-01 0.0000000000e+00 0.0000000000e+00
8.5000000000e-01 0.0000000000e+00 0.0000000000e+00
8.6000000000e-01 0.0000000000e+00 0.0000000000e+00
8.7000000000e-01 0.0000000000e+00 0.0000000000e+00
8.8000000000e-01 0.0000000000e+00 0.0000000000e+00
8.9000000000e-01 0.0000000000e+00 0.0000000000e+00
9.0000000000e-01 0.0000000000e+00 0.0000000000e+00
9.1000000000e-01 0.0000000000e+00 0.0000000000e+00
9.2000000000e-01 0.0000000000e+00 0.0000000000e+00
9.3000000000e-01 0.0000000000e+00 0.0000000000e+00
9.4000000000e-01 0.0000000000e+00 0.0000000000e+00
9.5000000000e-01 0.0000000000e+00 0.0000000000e+00
9.6000000000e-01 0.0000000000e+00 0.0000000000e+00
9.7000000000e-01 0.0000000000e+00 0.0000000000e+00
9.8000000000e-01 0.0000000000e+00 0.0000000000e+00
9.9000000000e-01 0.0000000000e+00 0.0000000000e+00
1.0000000000e+00 0.0000000000e+00 0.0000000000e+00
0.0000000000e+00 1.0000000000e-02 0.0000000000e+00
1.0000000000e-02 1.0000000000e-02 0.0000000000e+00
2.0000000000e-02 1.0000000000e-02 0.0000000000e+00
3.0000000000e-02 1.0000000000e-02 0.0000000000e+00
4.0000000000e-02 1.0000000000e-02 0.0000000000e+00
5.0000000000e-02 1.0000000000e-02 0.0000000000e+00
6.0000000000e-02 1.0000000000e-02 0.0000000000e+00
7.0000000000e-02 1.0000000000e-02 0.0000000000e+00
8.0000000000e-02 1.0000000000e-02 0.0000000000e+00
9.0000000000e-02 1.0000000000e-02 0.0000000000e+00
1.0000000000e-01 1.0000000000e-02 0.0000000000e+00
1.1000000000e-01 1.0000000000e-02 0.0000000000e+00
1.2000000000e-01 1.0000000000e-02 0.0000000000e+00
1.3000000000e-01 1.0000000000e-02 0.0000000000e+00
1.4000000000e-01 1.0000000000e-02 0.0000000000e+00
1.5000000000e-01 1.0000000000e-02 0.0000000000e+00
1.6000000000e-01 1.0000000000e-02 0.0000000000e+00
1.7000000000e-01 1.0000000000e-02 0.0000000000e+00
1.8000000000e-01 1.0000000000e-02 0.0000000000e+00
1.9000000000e-01 1.0000000000e-02 0.0000000000e+00
2.0000000000e-01 1.0000000000e-02 0.0000000000e+00
2.1000000000e-01 1.0000000000e-02 0.0000000000e+00
2.2000000000e-01 1.0000000000e-02 0.0000000000e+00
2.3000000000e-01 1.0000000000e-02 0.0000000000e+00
2.4000000000e-01 1.0000000000e-02 0.0000000000e+00
2.5000000000e-01 1.0000000000e-02 0.0000000000e+00
2.6000000000e-01 1.0000000000e-02 0.0000000000e+00
2.7000000000e-01 1.0000000000e-02 0.0000000000e+00
2.8000000000e-01 1.0000000000e-02 0.0000000000e+00
2.9000000000e-01 1.0000000000e-02 0.0000000000e+00
3.0000000000e-01 1.0000000000e-02 0.0000000000e+00
3.1000000000e-01 1.0000000000e-02 0.0000000000e+00
3.2000000000e-01 1.0000000000e-02 0.0000000000e+00
3.3000000000e-01 1.0000000000e-02 0.0000000000e+00
3.4000000000e-01 1.0000000000e-02 0.0000000000e+00
3.5000000000e-01 1.0000000000e-02 0.0000000000e+00
3.6000000000e-01 1.0000000000e-02 0.0000000000e+00
3.7000000000e-01 1.0000000000e-02 0.0000000000e+00
3.8000000000e-01 1.0000000000e-02 0.0000000000e+00
3.9000000000e-01 1.0000000000e-02 0.0000000000e+00
4.0000000000e-01 1.0000000000e-02 0.0000000000e+00
4.1000000000e-01 1.0000000000e-02 0.0000000000e+00
4.2000000000e-01 1.0000000000e-02 0.0000000000e+00
4.3000000000e-01 1.0000000000e-02 0.0000000000e+00
4.4000000000e-01 1.0000000000e-02 0.0000000000e+00
4.5000000000e-01 1.0000000000e-02 0.0000000000e+00
4.6000000000e-01 1.0000000000e-02 0.0000000000e+00
4.7000000000e-01 1.0000000000e-02 0.0000000000e+00
4.8000000000e-01 1.0000000000e-02 0.0000000000e+00
4.9000000000e-01 1.0000000000e-02 0.0000000000e+00
5.0000000000e-01 1.0000000000e-02 0.0000000000e+00
5.1000000000e-01 1.0000000000e-02 0.0000000000e+00
5.2000000000e-01 1.0000000000e-02 0.0000000000e+00
5.3000000000e-01 1.0000000000e-02 0.0000000000e+00
5.4000000000e-01 1.0000000000e-02 0.0000000000e+00
5.5000000000e-01 1.0000000000e-02 0.0000000000e+00
5.6000000000e-01 1.0000000000e-02 0.0000000000e+00
5.7000000000e-01 1.0000000000e-02 0.0000000000e+00
5.8000000000e-01 1.0000000000e-02 0.0000000000e+00
5.9000000000e-01 1.0000000000e-02 0.0000000000e+00
6.0000000000e-01 1.0000000000e-02 0.0000000000e+00
6.1000000000e-01 1.0000000000e-02 0.0000000000e+00
6.2000000000e-01 1.0000000000e-02 0.0000000000e+00
6.3000000000e-01 1.0000000000e-02 0.0000000000e+00
6.4000000000e-01 1.0000000000e-02 0.0000000000e+00
6.5000000000e-01 1.0000000000e-02 0.0000000000e+00
6.6000000000e-01 1.0000000000e-02 0.0000000000e+00
6.7000000000e-01 1.0000000000e-02 0.0000000000e+00
6.8000000000e-01 1.0000000000e-02 0.0000000000e+00
6.9000000000e-01 1.0000000000e-02 0.0000000000e+00
7.0000000000e-01 1.0000000000e-02 0.0000000000e+00
7.1000000000e-01 1.0000000000e-02 0.0000000000e+00
7.2000000000e-01 1.0000000000e-02 0.0000000000e+00
7.3000000000e-01 1.0000000000e-02 0.0000000000e+00
7.4000000000e-01 1.0000000000e-02 0.0000000000e+00
7.5000000000e-01 1.0000000000e-02 0.0000000000e+00
7.6000000000e-01 1.0000000000e-02 0.0000000000e+00
7.7000000000e-01 1.0000000000e-02 0.0000000000e+00
7.8000000000e-01 1.0000000000e-02 0.0000000000e+00
7.9000000000e-01 1.0000000000e-02 0.0000000000e+00
8.0000000000e-01 1.0000000000e-02 0.0000000000e+00
8.1000000000e-01 1.0000000000e-02 0.0000000000e+00
8.2000000000e-01 1.0000000000e-02 0.0000000000e+00
8.3000000000e-01 1.0000000000e-02 0.0000000000e+00
8.4000000000e-01 1.0000000000e-02 0.0000000000e+00
8.5000000000e-01 1.0000000000e-02 0.0000000000e+00
8.6000000000e-01 1.0000000000e-02 0.0000000000e+00
8.7000000000e-01 1.0000000000e-02 0.0000000000e+00
8.8000000000e-01 1.0000000000e-02 0.0000000000e+00
8.9000000000e-01 1.0000000000e-02 0.0000000000e+00
9.0000000000e-01 1.0000000000e-02 0.0000000000e+00
9.1000000000e-01 1.0000000000e-02 0.0000000000e+00
9.2000000000e-01 1.0000000000e-02 0.0000000000e+00
[...]
CELL_DATA 10000

SCALARS massDensity float
LOOKUP_TABLE default
1.1973812677e+00
1.1974457633e+00
1.1975406366e+00
1.1976830045e+00
1.1978695522e+00
1.1980961443e+00
1.1983579832e+00
1.1986497453e+00
1.1989657538e+00
1.1993001326e+00
1.1996469887e+00
1.2000005599e+00
1.2003553763e+00
1.2007063754e+00
1.2010490204e+00
1.2013793655e+00
1.2016941196e+00
1.2019906583e+00
1.2022670341e+00
1.2025219406e+00
1.2027546804e+00
1.2029650958e+00
1.2031535097e+00
1.2033206401e+00
1.2034675305e+00
1.2035954643e+00
1.2037058987e+00
1.2038003906e+00
1.2038805438e+00
1.2039479525e+00
1.2040041665e+00
1.2040506535e+00
1.2040887821e+00
1.2041198016e+00
1.2041448392e+00
1.2041648937e+00
1.2041808425e+00
1.2041934440e+00
1.2042033512e+00
1.2042111188e+00
1.2042172184e+00
1.2042220482e+00
1.2042259475e+00
1.2042292056e+00
1.2042320747e+00
1.2042347762e+00
1.2042375108e+00
1.2042404608e+00
1.2042437966e+00
1.2042476753e+00
1.2042522424e+00
1.2042576268e+00
1.2042639382e+00
1.2042712598e+00
1.2042796436e+00
1.2042891014e+00
1.2042996012e+00
1.2043110602e+00
1.2043233447e+00
1.2043362679e+00
1.2043495954e+00
1.2043630501e+00
1.2043763237e+00
1.2043890877e+00
1.2044010091e+00
1.2044117651e+00
1.2044210592e+00
1.2044286349e+00
1.2044342883e+00
1.2044378767e+00
1.2044393244e+00
1.2044386243e+00
1.2044358351e+00
1.2044310765e+00
1.2044245202e+00
1.2044163797e+00
1.2044068981e+00
1.2043963370e+00
1.2043849641e+00
1.2043730434e+00
1.2043608257e+00
1.2043485422e+00
1.2043363989e+00
1.2043245741e+00
1.2043132160e+00
1.2043024449e+00
1.2042923529e+00
1.2042830094e+00
1.2042744637e+00
1.2042667534e+00
1.2042599090e+00
1.2042539654e+00
1.2042489687e+00
1.2042449889e+00
1.2042421263e+00
1.2042405215e+00
1.2042403531e+00
1.2042418282e+00
1.2042451359e+00
1.2042337786e+00
1.1974457633e+00
1.1975135927e+00
1.1976096554e+00
1.1977521992e+00
1.1979381671e+00
1.1981636197e+00
1.1984238871e+00
1.1987137550e+00
1.1990276175e+00
1.1993596740e+00
1.1997040793e+00
1.2000551305e+00
1.2004073933e+00
1.2007558534e+00
1.2010959997e+00
1.2014239241e+00
1.2017363520e+00
1.2020306862e+00
1.2023049868e+00
1.2025579647e+00
1.2027889223e+00
1.2029977107e+00
1.2031846464e+00
1.2033504495e+00
1.2034961529e+00
1.2036230372e+00
1.2037325466e+00
1.2038262327e+00
1.2039056855e+00
1.2039724926e+00
1.2040281904e+00
1.2040742402e+00
1.2041119983e+00
1.2041427086e+00
1.2041674877e+00
1.2041873296e+00
1.2042031028e+00
1.2042155620e+00
1.2042253523e+00
1.2042330250e+00
1.2042390441e+00
1.2042438037e+00
1.2042476344e+00
1.2042508191e+00
1.2042535987e+00
1.2042561842e+00
1.2042587598e+00
1.2042614917e+00
1.2042645278e+00
1.2042680021e+00
1.2042720309e+00
1.2042767142e+00
1.2042821285e+00
1.2042883262e+00
1.2042953273e+00
1.2043031183e+00
1.2043116456e+00
1.2043208161e+00
1.2043304947e+00
1.2043405093e+00
1.2043506528e+00
1.2043606933e+00
1.2043703815e+00
1.2043794637e+00
1.2043876921e+00
1.2043948387e+00
1.2044007052e+00
1.2044051333e+00
1.2044080113e+00
1.2044092789e+00
1.2044089283e+00
1.2044070023e+00
1.2044035901e+00
1.2043988205e+00
1.2043928539e+00
1.2043858727e+00
1.2043780729e+00
1.2043696544e+00
1.2043608137e+00
1.2043517365e+00
1.2043425939e+00
1.2043335370e+00
1.2043246969e+00
1.2043161820e+00
1.2043080802e+00
1.2043004588e+00
1.2042933685e+00
1.2042868445e+00
1.2042809123e+00
1.2042755889e+00
1.2042708906e+00
1.2042668341e+00
1.2042634450e+00
1.2042607578e+00
1.2042588223e+00
1.2042577000e+00
1.2042574605e+00
1.2042581629e+00
1.2042598210e+00
1.2042447857e+00
1.1975406366e+00
1.1976096554e+00
1.1977050776e+00
1.1978460488e+00
1.1980296460e+00
1.1982520390e+00
1.1985086778e+00
1.1987944391e+00
1.1991038269e+00
1.1994311219e+00
1.1997705820e+00
1.2001165772e+00
1.2004637661e+00
1.2008071953e+00
1.2011424314e+00
1.2014656114e+00
1.2017735193e+00
1.2020635853e+00
1.2023339076e+00
1.2025832071e+00
1.2028108055e+00
1.2030165487e+00
1.2032007567e+00
1.2033641329e+00
1.2035077025e+00
1.2036327222e+00
1.2037406217e+00
1.2038329253e+00
1.2039112053e+00
1.2039770225e+00
1.2040318953e+00
1.2040772606e+00
1.2041144589e+00
1.2041447130e+00
1.2041691271e+00
1.2041886784e+00
1.2042042266e+00
1.2042165140e+00
1.2042261804e+00
1.2042337688e+00
1.2042397415e+00
1.2042444877e+00
1.2042483394e+00
1.2042515777e+00
1.2042544468e+00
1.2042571578e+00
1.2042598992e+00
1.2042628376e+00
1.2042661240e+00
1.2042698909e+00
1.2042742545e+00
1.2042793086e+00
1.2042851243e+00
1.2042917416e+00
1.2042991683e+00
1.2043073722e+00
1.2043162814e+00
1.2043257803e+00
1.2043357131e+00
1.2043458852e+00
1.2043560722e+00
1.2043660263e+00
1.2043754898e+00
1.2043842050e+00
1.2043919289e+00
1.2043984441e+00
1.2044035708e+00
1.2044071741e+00
1.2044091712e+00
1.2044095327e+00
1.2044082828e+00
1.2044054954e+00
1.2044012875e+00
1.2043958118e+00
1.2043892464e+00
1.2043817861e+00
1.2043736321e+00
1.2043649841e+00
1.2043560324e+00
1.2043469530e+00
1.2043379025e+00
1.2043290171e+00
1.2043204101e+00
1.2043121741e+00
1.2043043804e+00
1.2042970832e+00
1.2042903203e+00
1.2042841184e+00
1.2042784937e+00
1.2042734588e+00
1.2042690225e+00
1.2042651966e+00
1.2042619953e+00
1.2042594402e+00
1.2042575569e+00
1.2042563747e+00
1.2042559150e+00
1.2042561774e+00
1.2042571059e+00
1.2042398122e+00
1.1976830045e+00
1.1977521992e+00
1.1978460488e+00
1.1979843548e+00
1.1981642602e+00
1.1983820517e+00
1.1986332864e+00
1.1989129821e+00
1.1992157586e+00
1.1995360433e+00
1.1998682077e+00
1.2002067622e+00
1.2005464674e+00
1.2008824932e+00
1.2012104882e+00
1.2015266875e+00
1.2018279318e+00
1.2021117202e+00
1.2023761807e+00
1.2026200737e+00
1.2028427261e+00
1.2030439973e+00
1.2032241927e+00
1.2033840093e+00
1.2035244433e+00
1.2036467320e+00
1.2037522685e+00
1.2038425503e+00
1.2039191111e+00
1.2039834830e+00
1.2040371476e+00
1.2040815150e+00
1.2041178933e+00
1.2041474828e+00
1.2041713608e+00
1.2041904873e+00
1.2042057011e+00
1.2042177326e+00
1.2042272067e+00
1.2042346593e+00
1.2042405430e+00
1.2042452442e+00
1.2042490895e+00
1.2042523608e+00
1.2042553001e+00
1.2042581214e+00
1.2042610128e+00
1.2042641441e+00
1.2042676656e+00
1.2042717113e+00
1.2042763938e+00
1.2042818045e+00
1.2042880057e+00
1.2042950289e+00
1.2043028668e+00
1.2043114725e+00
1.2043207538e+00
1.2043305756e+00
1.2043407596e+00
1.2043510921e+00
1.2043613292e+00
1.2043712097e+00
1.2043804653e+00
1.2043888358e+00
1.2043960809e+00
1.2044019943e+00
1.2044064125e+00
1.2044092238e+00
1.2044103722e+00
1.2044098585e+00
1.2044077376e+00
1.2044041133e+00
1.2043991299e+00
1.2043929628e+00
1.2043858083e+00
1.2043778727e+00
1.2043693634e+00
1.2043604796e+00
1.2043514067e+00
1.2043423105e+00
1.2043333355e+00
1.2043246019e+00
1.2043162080e+00
1.2043082292e+00
1.2043007227e+00
1.2042937276e+00
1.2042872710e+00
1.2042813679e+00
1.2042760276e+00
1.2042712538e+00
1.2042670498e+00
1.2042634184e+00
1.2042603656e+00
1.2042578986e+00
1.2042560269e+00
1.2042547556e+00
1.2042540804e+00
1.2042539726e+00
1.2042543635e+00
1.2042352015e+00
1.1978695522e+00
1.1979381671e+00
1.1980296460e+00
1.1981642602e+00
1.1983392346e+00
1.1985509528e+00
1.1987951218e+00
1.1990668950e+00
1.1993610703e+00
1.1996722228e+00
1.1999949071e+00
1.2003237758e+00
1.2006537596e+00
1.2009801506e+00
1.2012987406e+00
1.2016058572e+00
1.2018984483e+00
1.2021740708e+00
1.2024309214e+00
1.2026677842e+00
1.2028840181e+00
1.2030794768e+00
1.2032544678e+00
1.2034096599e+00
1.2035460299e+00
1.2036647727e+00
1.2037672487e+00
1.2038549071e+00
1.2039292433e+00
1.2039917408e+00
1.2040438435e+00
1.2040869171e+00
1.2041222362e+00
1.2041509634e+00
1.2041741488e+00
1.2041927223e+00
1.2042075025e+00
1.2042191971e+00
1.2042284174e+00
1.2042356836e+00
1.2042414406e+00
1.2042460648e+00
1.2042498800e+00
1.2042531626e+00
1.2042561554e+00
1.2042590701e+00
1.2042620973e+00
1.2042654060e+00
1.2042691487e+00
1.2042734574e+00
1.2042784444e+00
1.2042841953e+00
1.2042907674e+00
1.2042981811e+00
1.2043064178e+00
1.2043154133e+00
1.2043250588e+00
1.2043351980e+00
1.2043456334e+00
1.2043561299e+00
1.2043664270e+00
1.2043762481e+00
1.2043853160e+00
1.2043933660e+00
1.2044001612e+00
1.2044055038e+00
1.2044092469e+00
1.2044112999e+00
1.2044116326e+00
1.2044102746e+00
1.2044073103e+00
1.2044028724e+00
1.2043971317e+00
1.2043902864e+00
1.2043825499e+00
1.2043741409e+00
1.2043652723e+00
1.2043561445e+00
1.2043469375e+00
1.2043378090e+00
1.2043288906e+00
1.2043202891e+00
1.2043120865e+00
1.2043043438e+00
1.2042971020e+00
1.2042903881e+00
1.2042842155e+00
1.2042785902e+00
1.2042735114e+00
1.2042689760e+00
1.2042649787e+00
1.2042615161e+00
1.2042585841e+00
1.2042561809e+00
1.2042543020e+00
1.2042529396e+00
1.2042520739e+00
1.2042516682e+00
1.2042516559e+00
1.2042308746e+00
1.1980961443e+00
1.1981636197e+00
1.1982520390e+00
1.1983820517e+00
1.1985509528e+00
1.1987552645e+00
1.1989908315e+00
1.1992530009e+00
1.1995367411e+00
1.1998368433e+00
1.2001480392e+00
1.2004651945e+00
1.2007834023e+00
1.2010981443e+00
1.2014053443e+00
1.2017014808e+00
1.2019835945e+00
1.2022493472e+00
1.2024969857e+00
1.2027253530e+00
1.2029338192e+00
1.2031222562e+00
1.2032909507e+00
1.2034405584e+00
1.2035720131e+00
1.2036864759e+00
1.2037852519e+00
1.2038697454e+00
1.2039413930e+00
1.2040016307e+00
1.2040518463e+00
1.2040933610e+00
1.2041274003e+00
1.2041550890e+00
1.2041774367e+00
1.2041953438e+00
1.2042095974e+00
1.2042208841e+00
1.2042297924e+00
1.2042368284e+00
1.2042424219e+00
1.2042469419e+00
1.2042507026e+00
1.2042539782e+00
1.2042570064e+00
1.2042600000e+00
1.2042631473e+00
1.2042666196e+00
1.2042705677e+00
1.2042751248e+00
1.2042803998e+00
1.2042864760e+00
1.2042934027e+00
1.2043011929e+00
1.2043098144e+00
1.2043191898e+00
1.2043291911e+00
1.2043396447e+00
1.2043503315e+00
1.2043609988e+00
1.2043713669e+00
1.2043811460e+00
1.2043900481e+00
1.2043978049e+00
1.2044041805e+00
1.2044089862e+00
1.2044120890e+00
1.2044134187e+00
1.2044129694e+00
1.2044107980e+00
1.2044070176e+00
1.2044017886e+00
1.2043953078e+00
1.2043877952e+00
1.2043794822e+00
1.2043705990e+00
1.2043613658e+00
1.2043519832e+00
1.2043426281e+00
1.2043334495e+00
1.2043245684e+00
1.2043160773e+00
1.2043080446e+00
1.2043005152e+00
1.2042935169e+00
1.2042870620e+00
1.2042811532e+00
1.2042757848e+00
1.2042709479e+00
1.2042666304e+00
1.2042628208e+00
1.2042595074e+00
1.2042566801e+00
1.2042543277e+00
1.2042524387e+00
1.2042509955e+00
1.2042499733e+00
1.2042493324e+00
1.2042490164e+00
1.2042267942e+00
1.1983579832e+00
1.1984238871e+00
1.1985086778e+00
1.1986332864e+00
1.1987951218e+00
1.1989908315e+00
1.1992164525e+00
1.1994675109e+00
1.1997392113e+00
1.2000265471e+00
1.2003244984e+00
1.2006281291e+00
1.2009327652e+00
1.2012340609e+00
1.2015281362e+00
1.2018116014e+00
1.2020816437e+00
1.2023360083e+00
1.2025730349e+00
1.2027916021e+00
1.2029911220e+00
1.2031714607e+00
1.2033329051e+00
1.2034760736e+00
1.2036018706e+00
1.2037113995e+00
1.2038059181e+00
1.2038867642e+00
1.2039553195e+00
1.2040129534e+00
1.2040609995e+00
1.2041007182e+00
1.2041332869e+00
1.2041597787e+00
1.2041811641e+00
1.2041983020e+00
1.2042119500e+00
1.2042227637e+00
1.2042313108e+00
1.2042380757e+00
1.2042434753e+00
1.2042478643e+00
1.2042515507e+00
1.2042548002e+00
1.2042578489e+00
1.2042609054e+00
1.2042641592e+00
1.2042677794e+00
1.2042719187e+00
1.2042767078e+00
1.2042822556e+00
1.2042886400e+00
1.2042959065e+00
1.2043040576e+00
1.2043130517e+00
1.2043227956e+00
1.2043331466e+00
1.2043439109e+00
1.2043548523e+00
1.2043656972e+00
1.2043761504e+00
1.2043859062e+00
1.2043946674e+00
1.2044021598e+00
1.2044081493e+00
1.2044124533e+00
1.2044149527e+00
1.2044155954e+00
1.2044143988e+00
1.2044114455e+00
1.2044068760e+00
1.2044008779e+00
1.2043936728e+00
1.2043855030e+00
1.2043766169e+00
1.2043672577e+00
1.2043576519e+00
1.2043480026e+00
1.2043384831e+00
1.2043292358e+00
1.2043203706e+00
1.2043119683e+00
1.2043040822e+00
1.2042967442e+00
1.2042899669e+00
1.2042837506e+00
1.2042780850e+00
1.2042729551e+00
1.2042683417e+00
1.2042642260e+00
1.2042605884e+00
1.2042574118e+00
1.2042546790e+00
1.2042523743e+00
1.2042504792e+00
1.2042489733e+00
1.2042478283e+00
1.2042470082e+00
1.2042464639e+00
1.2042229487e+00
1.1986497453e+00
1.1987137550e+00
1.1987944391e+00
1.1989129821e+00
1.1990668950e+00
1.1992530009e+00
1.1994675109e+00
1.1997061916e+00
1.1999644629e+00
1.2002375900e+00
1.2005207788e+00
1.2008093629e+00
1.2010988775e+00
1.2013852168e+00
1.2016646722e+00
1.2019340449e+00
1.2021906430e+00
1.2024323442e+00
1.2026575544e+00
1.2028652255e+00
1.2030547855e+00
1.2032261218e+00
1.2033794963e+00
1.2035155086e+00
1.2036350091e+00
1.2037390562e+00
1.2038288376e+00
1.2039056326e+00
1.2039707479e+00
1.2040254908e+00
1.2040711238e+00
1.2041088493e+00
1.2041397821e+00
1.2041649462e+00
1.2041852603e+00
1.2042015449e+00
1.2042145175e+00
1.2042248053e+00
1.2042329471e+00
1.2042394081e+00
1.2042445854e+00
1.2042488224e+00
1.2042524147e+00
1.2042556229e+00
1.2042586763e+00
1.2042617824e+00
1.2042651276e+00
1.2042688821e+00
1.2042731965e+00
1.2042782026e+00
1.2042840059e+00
1.2042906831e+00
1.2042982723e+00
1.2043067703e+00
1.2043161230e+00
1.2043262260e+00
1.2043369193e+00
1.2043479933e+00
1.2043591916e+00
1.2043702241e+00
1.2043807768e+00
1.2043905310e+00
1.2043991776e+00
1.2044064376e+00
1.2044120757e+00
1.2044159160e+00
1.2044178503e+00
1.2044178441e+00
1.2044159359e+00
1.2044122329e+00
1.2044069017e+00
1.2044001561e+00
1.2043922423e+00
1.2043834239e+00
1.2043739674e+00
1.2043641281e+00
1.2043541409e+00
1.2043442108e+00
1.2043345097e+00
1.2043251730e+00
1.2043163020e+00
1.2043079649e+00
1.2043002028e+00
1.2042930328e+00
1.2042864551e+00
1.2042804562e+00
1.2042750152e+00
1.2042701055e+00
1.2042657004e+00
1.2042617720e+00
1.2042582954e+00
1.2042552466e+00
1.2042526046e+00
1.2042503482e+00
1.2042484571e+00
1.2042469076e+00
1.2042456731e+00
1.2042447203e+00
1.2042440098e+00
1.2042193297e+00
1.1989657538e+00
1.1990276175e+00
1.1991038269e+00
1.1992157586e+00
1.1993610703e+00
1.1995367411e+00
1.1997392113e+00
1.1999644629e+00
1.2002081963e+00
1.2004659196e+00
1.2007331341e+00
1.2010054128e+00
1.2012785687e+00
1.2015487046e+00
1.2018123464e+00
1.2020664549e+00
1.2023085131e+00
1.2025365003e+00
1.2027489326e+00
1.2029448058e+00
1.2031235972e+00
1.2032851878e+00
1.2034298386e+00
1.2035581050e+00
1.2036708005e+00
1.2037689151e+00
1.2038535782e+00
1.2039259896e+00
1.2039873891e+00
1.2040390043e+00
1.2040820316e+00
1.2041176007e+00
1.2041467678e+00
1.2041704951e+00
1.2041896533e+00
1.2042050137e+00
1.2042172572e+00
1.2042269739e+00
1.2042346767e+00
1.2042408048e+00
1.2042457383e+00
1.2042498035e+00
1.2042532868e+00
1.2042564384e+00
1.2042594838e+00
1.2042626253e+00
1.2042660490e+00
1.2042699224e+00
1.2042743976e+00
1.2042796038e+00
1.2042856470e+00
1.2042925992e+00
1.2043004957e+00
1.2043093244e+00
1.2043190236e+00
1.2043294746e+00
1.2043405048e+00
1.2043518862e+00
1.2043633466e+00
1.2043745762e+00
1.2043852458e+00
1.2043950207e+00
1.2044035819e+00
1.2044106426e+00
1.2044159671e+00
1.2044193832e+00
1.2044207932e+00
1.2044201776e+00
1.2044175949e+00
1.2044131753e+00
1.2044071105e+00
1.2043996392e+00
1.2043910317e+00
1.2043815731e+00
1.2043715472e+00
1.2043612233e+00
1.2043508439e+00
1.2043406182e+00
1.2043307162e+00
1.2043212690e+00
1.2043123685e+00
1.2043040732e+00
1.2042964107e+00
1.2042893861e+00
1.2042829856e+00
1.2042771842e+00
1.2042719487e+00
1.2042672435e+00
1.2042630318e+00
1.2042592796e+00
1.2042559545e+00
1.2042530287e+00
1.2042504758e+00
1.2042482729e+00
1.2042463964e+00
1.2042448237e+00
1.2042435287e+00
1.2042424838e+00
1.2042416561e+00
1.2042159254e+00
1.1993001326e+00
1.1993596740e+00
1.1994311219e+00
1.1995360433e+00
1.1996722228e+00
1.1998368433e+00
1.2000265471e+00
1.2002375900e+00
1.2004659196e+00
1.2007073520e+00
1.2009576483e+00
1.2012126874e+00
1.2014685228e+00
1.2017215300e+00
1.2019684321e+00
1.2022064068e+00
1.2024330765e+00
1.2026465704e+00
1.2028454815e+00
1.2030288880e+00
1.2031962860e+00
1.2033475801e+00
1.2034830027e+00
1.2036030869e+00
1.2037085848e+00
1.2038004341e+00
1.2038796844e+00
1.2039474675e+00
1.2040049379e+00
1.2040532518e+00
1.2040935240e+00
1.2041268178e+00
1.2041541179e+00
1.2041763296e+00
1.2041942652e+00
1.2042086508e+00
1.2042201220e+00
1.2042292358e+00
1.2042364719e+00
1.2042422467e+00
1.2042469177e+00
1.2042507973e+00
1.2042541572e+00
1.2042572408e+00
1.2042602651e+00
1.2042634304e+00
1.2042669184e+00
1.2042708976e+00
1.2042755173e+00
1.2042809084e+00
1.2042871736e+00
1.2042943846e+00
1.2043025708e+00
1.2043117156e+00
1.2043217469e+00
1.2043325367e+00
1.2043438968e+00
1.2043555856e+00
1.2043673120e+00
1.2043787509e+00
1.2043895547e+00
1.2043993754e+00
1.2044078812e+00
1.2044147787e+00
1.2044198287e+00
1.2044228627e+00
1.2044237907e+00
1.2044226072e+00
1.2044193887e+00
1.2044142870e+00
1.2044075173e+00
1.2043993426e+00
1.2043900567e+00
1.2043799656e+00
1.2043693716e+00
1.2043585570e+00
1.2043477742e+00
1.2043372361e+00
1.2043271136e+00
1.2043175328e+00
1.2043085792e+00
1.2043003004e+00
1.2042927135e+00
1.2042858102e+00
1.2042795653e+00
1.2042739408e+00
1.2042688934e+00
1.2042643766e+00
1.2042603460e+00
1.2042567593e+00
1.2042535795e+00
1.2042507726e+00
1.2042483104e+00
1.2042461660e+00
1.2042443165e+00
1.2042427384e+00
1.2042414092e+00
1.2042403047e+00
1.2042394005e+00
1.2042127160e+00
1.1996469887e+00
1.1997040793e+00
1.1997705820e+00
1.1998682077e+00
1.1999949071e+00
1.2001480392e+00
1.2003244984e+00
1.2005207788e+00
1.2007331341e+00
1.2009576483e+00
1.2011904046e+00
1.2014275455e+00
1.2016654271e+00
1.2019006553e+00
1.2021302082e+00
1.2023514399e+00
1.2025621629e+00
1.2027606188e+00
1.2029455199e+00
1.2031159933e+00
1.2032715879e+00
1.2034122018e+00
1.2035380656e+00
1.2036496640e+00
1.2037477080e+00
1.2038330603e+00
1.2039067062e+00
1.2039696905e+00
1.2040230938e+00
1.2040679850e+00
1.2041054063e+00
1.2041363412e+00
1.2041617099e+00
1.2041823501e+00
1.2041990212e+00
1.2042123954e+00
1.2042230678e+00
1.2042315548e+00
1.2042383072e+00
1.2042437126e+00
1.2042481095e+00
1.2042517911e+00
1.2042550182e+00
1.2042580223e+00
1.2042610158e+00
1.2042641923e+00
1.2042677330e+00
1.2042718030e+00
1.2042765531e+00
1.2042821118e+00
1.2042885828e+00
1.2042960341e+00
1.2043044937e+00
1.2043139379e+00
1.2043242886e+00
1.2043354057e+00
1.2043470906e+00
1.2043590851e+00
1.2043710839e+00
1.2043827433e+00
1.2043937011e+00
1.2044035928e+00
1.2044120758e+00
1.2044188471e+00
1.2044236646e+00
1.2044263600e+00
1.2044268508e+00
1.2044251428e+00
1.2044213290e+00
1.2044155811e+00
1.2044081364e+00
1.2043992815e+00
1.2043893326e+00
1.2043786174e+00
1.2043674554e+00
1.2043561443e+00
1.2043449455e+00
1.2043340784e+00
1.2043237139e+00
1.2043139764e+00
1.2043049441e+00
1.2042966567e+00
1.2042891197e+00
1.2042823143e+00
1.2042762023e+00
1.2042707352e+00
1.2042658577e+00
1.2042615149e+00
1.2042576528e+00
1.2042542232e+00
1.2042511822e+00
1.2042484929e+00
1.2042461223e+00
1.2042440435e+00
1.2042422315e+00
1.2042406649e+00
1.2042393228e+00
1.2042381863e+00
1.2042372358e+00
1.2042096801e+00
1.2000005599e+00
1.2000551305e+00
1.2001165772e+00
1.2002067622e+00
1.2003237758e+00
1.2004651945e+00
1.2006281291e+00
1.2008093629e+00
1.2010054128e+00
1.2012126874e+00
1.2014275455e+00
1.2016464514e+00
1.2018660170e+00
1.2020831344e+00
1.2022949915e+00
1.2024991701e+00
1.2026936306e+00
1.2028767719e+00
1.2030473881e+00
1.2032046923e+00
1.2033482538e+00
1.2034779942e+00
1.2035941144e+00
1.2036970749e+00
1.2037875220e+00
1.2038662622e+00
1.2039341969e+00
1.2039922984e+00
1.2040415576e+00
1.2040829671e+00
1.2041174836e+00
1.2041460197e+00
1.2041694204e+00
1.2041884631e+00
1.2042038452e+00
1.2042161914e+00
1.2042260487e+00
1.2042338983e+00
1.2042401557e+00
1.2042451842e+00
1.2042492979e+00
1.2042527750e+00
1.2042558604e+00
1.2042587777e+00
1.2042617300e+00
1.2042649081e+00
1.2042684885e+00
1.2042726367e+00
1.2042775010e+00
1.2042832116e+00
1.2042898700e+00
1.2042975448e+00
1.2043062593e+00
1.2043159874e+00
1.2043266423e+00
1.2043380772e+00
1.2043500796e+00
1.2043623799e+00
1.2043746558e+00
1.2043865492e+00
1.2043976800e+00
1.2044076705e+00
1.2044161636e+00
1.2044228483e+00
1.2044274761e+00
1.2044298793e+00
1.2044299794e+00
1.2044277924e+00
1.2044234257e+00
1.2044170691e+00
1.2044089811e+00
1.2043994700e+00