# vtk DataFile Version 2.0
Blank
ASCII
DATASET STRUCTURED_GRID
DIMENSIONS 101 101 2
POINTS 20402 float
0.0000000000e+00 0.0000000000e+00 0.0000000000e+00
1.0000000000e-02 0.0000000000e+00 0.0000000000e+00
2.0000000000e-02 0.0000000000e+00 0.0000000000e+00
3.0000000000e-02 0.0000000000e+00 0.0000000000e+00
4.0000000000e-02 0.0000000000e+00 0.0000000000e+00
5.0000000000e-02 0.0000000000e+00 0.0000000000e+00
6.0000000000e-02 0.0000000000e+00 0.0000000000e+00
7.0000000000e-02 0.0000000000e+00 0.0000000000e+00
8.0000000000e-02 0.0000000000e+00 0.0000000000e+00
9.0000000000e-02 0.0000000000e+00 0.0000000000e+00
1.0000000000e-01 0.0000000000e+00 0.0000000000e+00
1.1000000000e-01 0.0000000000e+00 0.0000000000e+00
1.2000000000e-01 0.0000000000e+00 0.0000000000e+00
1.3000000000e-01 0.0000000000e+00 0.0000000000e+00
1.4000000000e-01 0.0000000000e+00 0.0000000000e+00
1.5000000000e-01 0.0000000000e+00 0.0000000000e+00
1.6000000000e-01 0.0000000000e+00 0.0000000000e+00
1.7000000000e-01 0.0000000000e+00 0.0000000000e+00
1.8000000000e-01 0.0000000000e+00 0.0000000000e+00
1.9000000000e-01 0.0000000000e+00 0.0000000000e+00
2.0000000000e-01 0.0000000000e+00 0.0000000000e+00
2.1000000000e-01 0.0000000000e+00 0.0000000000e+00
2.2000000000e-01 0.0000000000e+00 0.0000000000e+00
2.3000000000e-01 0.0000000000e+00 0.0000000000e+00
2.4000000000e-01 0.0000000000e+00 0.0000000000e+00
2.5000000000e-01 0.0000000000e+00 0.0000000000e+00
2.6000000000e-01 0.0000000000e+00 0.0000000000e+00
2.7000000000e-01 0.0000000000e+00 0.0000000000e+00
2.8000000000e-01 0.0000000000e+00 0.0000000000e+00
2.9000000000e-01 0.0000000000e+00 0.0000000000e+00
3.0000000000e-01 0.0000000000e+00 0.0000000000e+00
3.1000000000e-01 0.0000000000e+00 0.0000000000e+00
3.2000000000e-01 0.0000000000e+00 0.0000000000e+00
3.3000000000e-01 0.0000000000e+00 0.0000000000e+00
3.4000000000e-01 0.0000000000e+00 0.0000000000e+00
3.5000000000e-01 0.0000000000e+00 0.0000000000e+00
3.6000000000e-01 0.0000000000e+00 0.0000000000e+00
3.7000000000e-01 0.0000000000e+00 0.0000000000e+00
3.8000000000e-01 0.0000000000e+00 0.0000000000e+00
3.9000000000e-01 0.0000000000e+00 0.0000000000e+00
4.0000000000e-01 0.0000000000e+00 0.0000000000e+00
4.1000000000e-01 0.0000000000e+00 0.0000000000e+00
4.2000000000e-01 0.0000000000e+00 0.0000000000e+00
4.3000000000e-01 0.0000000000e+00 0.0000000000e+00
4.4000000000e-01 0.0000000000e+00 0.0000000000e+00
4.5000000000e-01 0.0000000000e+00 0.0000000000e+00
4.6000000000e-01 0.0000000000e+00 0.0000000000e+00
4.7000000000e-01 0.0000000000e+00 0.0000000000e+00
4.8000000000e-01 0.0000000000e+00 0.0000000000e+00
4.9000000000e-01 0.0000000000e+00 0.0000000000e+00
5.0000000000e-01 0.0000000000e+00 0.0000000000e+00
5.1000000000e-01 0.0000000000e+00 0.0000000000e+00
5.2000000000e-01 0.0000000000e+00 0.0000000000e+00
5.3000000000e-01 0.0000000000e+00 0.0000000000e+00
5.4000000000e-01 0.0000000000e+00 0.0000000000e+00
5.5000000000e-01 0.0000000000e+00 0.0000000000e+00
5.6000000000e-01 0.0000000000e+00 0.0000000000e+00
5.7000000000e-01 0.0000000000e+00 0.0000000000e+00
5.8000000000e-01 0.0000000000e+00 0.0000000000e+00
5.9000000000e-01 0.0000000000e+00 0.0000000000e+00
6.0000000000e-01 0.0000000000e+00 0.0000000000e+00
6.1000000000e-01 0.0000000000e+00 0.0000000000e+00
6.2000000000e-01 0.0000000000e+00 0.0000000000e+00
6.3000000000e-01 0.0000000000e+00 0.0000000000e+00
6.4000000000e-01 0.0000000000e+00 0.0000000000e+00
6.5000000000e-01 0.0000000000e+00 0.0000000000e+00
6.6000000000e-01 0.0000000000e+00 0.0000000000e+00
6.7000000000e-01 0.0000000000e+00 0.0000000000e+00
6.8000000000e-01 0.0000000000e+00 0.0000000000e+00
6.9000000000e-01 0.0000000000e+00 0.0000000000e+00
7.0000000000e-01 0.0000000000e+00 0.0000000000e+00
7.1000000000e-01 0.0000000000e+00 0.0000000000e+00
7.2000000000e-01 0.0000000000e+00 0.0000000000e+00
7.3000000000e-01 0.0000000000e+00 0.0000000000e+00
7.4000000000e-01 0.0000000000e+00 0.0000000000e+00
7.5000000000e-01 0.0000000000e+00 0.0000000000e+00
7.6000000000e-01 0.0000000000e+00 0.0000000000e+00
7.7000000000e-01 0.0000000000e+00 0.0000000000e+00
7.8000000000e-01 0.0000000000e+00 0.0000000000e+00
7.9000000000e-01 0.0000000000e+00 0.0000000000e+00
8.0000000000e-01 0.0000000000e+00 0.0000000000e+00
8.1000000000e-01 0.0000000000e+00 0.0000000000e+00
8.2000000000e-01 0.0000000000e+00 0.0000000000e+00
8.3000000000e-01 0.0000000000e+00 0.0000000000e+00
8.4000000000e-01 0.0000000000e+00 0.0000000000e+00
8.5000000000e-01 0.0000000000e+00 0.0000000000e+00
8.6000000000e-01 0.0000000000e+00 0.0000000000e+00
8.7000000000e-01 0.0000000000e+00 0.0000000000e+00
8.8000000000e-01 0.0000000000e+00 0.0000000000e+00
8.9000000000e-01 0.0000000000e+00 0.0000000000e+00
9.0000000000e-01 0.0000000000e+00 0.0000000000e+00
9.1000000000e-01 0.0000000000e+00 0.0000000000e+00
9.2000000000e-01 0.0000000000e+00 0.0000000000e+00
9.3000000000e-01 0.0000000000e+00 0.0000000000e+00
9.4000000000e-01 0.0000000000e+00 0.0000000000e+00
9.5000000000e-01 0.0000000000e+00 0.0000000000e+00
9.6000000000e-01 0.0000000000e+00 0.0000000000e+00
9.7000000000e-01 0.0000000000e+00 0.0000000000e+00
9.8000000000e-01 0.0000000000e+00 0.0000000000e+00
9.9000000000e-01 0.0000000000e+00 0.0000000000e+00
1.0000000000e+00 0.0000000000e+00 0.0000000000e+00
0.0000000000e+00 1.0000000000e-02 0.0000000000e+00
1.0000000000e-02 1.0000000000e-02 0.0000000000e+00
2.0000000000e-02 1.0000000000e-02 0.0000000000e+00
3.0000000000e-02 1.0000000000e-02 0.0000000000e+00
4.0000000000e-02 1.0000000000e-02 0.0000000000e+00
5.0000000000e-02 1.0000000000e-02 0.0000000000e+00
6.0000000000e-02 1.0000000000e-02 0.0000000000e+00
7.0000000000e-02 1.0000000000e-02 0.0000000000e+00
8.0000000000e-02 1.0000000000e-02 0.0000000000e+00
9.0000000000e-02 1.0000000000e-02 0.0000000000e+00
1.0000000000e-01 1.0000000000e-02 0.0000000000e+00
1.1000000000e-01 1.0000000000e-02 0.0000000000e+00
1.2000000000e-01 1.0000000000e-02 0.0000000000e+00
1.3000000000e-01 1.0000000000e-02 0.0000000000e+00
1.4000000000e-01 1.0000000000e-02 0.0000000000e+00
1.5000000000e-01 1.0000000000e-02 0.0000000000e+00
1.6000000000e-01 1.0000000000e-02 0.0000000000e+00
1.7000000000e-01 1.0000000000e-02 0.0000000000e+00
1.8000000000e-01 1.0000000000e-02 0.0000000000e+00
1.9000000000e-01 1.0000000000e-02 0.0000000000e+00
2.0000000000e-01 1.0000000000e-02 0.0000000000e+00
2.1000000000e-01 1.0000000000e-02 0.0000000000e+00
2.2000000000e-01 1.0000000000e-02 0.0000000000e+00
2.3000000000e-01 1.0000000000e-02 0.0000000000e+00
2.4000000000e-01 1.0000000000e-02 0.0000000000e+00
2.5000000000e-01 1.0000000000e-02 0.0000000000e+00
2.6000000000e-01 1.0000000000e-02 0.0000000000e+00
2.7000000000e-01 1.0000000000e-02 0.0000000000e+00
2.8000000000e-01 1.0000000000e-02 0.0000000000e+00
2.9000000000e-01 1.0000000000e-02 0.0000000000e+00
3.0000000000e-01 1.0000000000e-02 0.0000000000e+00
3.1000000000e-01 1.0000000000e-02 0.0000000000e+00
3.2000000000e-01 1.0000000000e-02 0.0000000000e+00
3.3000000000e-01 1.0000000000e-02 0.0000000000e+00
3.4000000000e-01 1.0000000000e-02 0.0000000000e+00
3.5000000000e-01 1.0000000000e-02 0.0000000000e+00
3.6000000000e-01 1.0000000000e-02 0.0000000000e+00
3.7000000000e-01 1.0000000000e-02 0.0000000000e+00
3.8000000000e-01 1.0000000000e-02 0.0000000000e+00
3.9000000000e-01 1.0000000000e-02 0.0000000000e+00
4.0000000000e-01 1.0000000000e-02 0.0000000000e+00
4.1000000000e-01 1.0000000000e-02 0.0000000000e+00
4.2000000000e-01 1.0000000000e-02 0.0000000000e+00
4.3000000000e-01 1.0000000000e-02 0.0000000000e+00
4.4000000000e-01 1.0000000000e-02 0.0000000000e+00
4.5000000000e-01 1.0000000000e-02 0.0000000000e+00
4.6000000000e-01 1.0000000000e-02 0.0000000000e+00
4.7000000000e-01 1.0000000000e-02 0.0000000000e+00
4.8000000000e-01 1.0000000000e-02 0.0000000000e+00
4.9000000000e-01 1.0000000000e-02 0.0000000000e+00
5.0000000000e-01 1.0000000000e-02 0.0000000000e+00
5.1000000000e-01 1.0000000000e-02 0.0000000000e+00
5.2000000000e-01 1.0000000000e-02 0.0000000000e+00
5.3000000000e-01 1.0000000000e-02 0.0000000000e+00
5.4000000000e-01 1.0000000000e-02 0.0000000000e+00
5.5000000000e-01 1.0000000000e-02 0.0000000000e+00
5.6000000000e-01 1.0000000000e-02 0.0000000000e+00
5.7000000000e-01 1.0000000000e-02 0.0000000000e+00
5.8000000000e-01 1.0000000000e-02 0.0000000000e+00
5.9000000000e-01 1.0000000000e-02 0.0000000000e+00
6.0000000000e-01 1.0000000000e-02 0.0000000000e+00
6.1000000000e-01 1.0000000000e-02 0.0000000000e+00
6.2000000000e-01 1.0000000000e-02 0.0000000000e+00
6.3000000000e-01 1.0000000000e-02 0.0000000000e+00
6.4000000000e-01 1.0000000000e-02 0.0000000000e+00
6.5000000000e-01 1.0000000000e-02 0.0000000000e+00
6.6000000000e-01 1.0000000000e-02 0.0000000000e+00
6.7000000000e-01 1.0000000000e-02 0.0000000000e+00
6.8000000000e-01 1.0000000000e-02 0.0000000000e+00
6.9000000000e-01 1.0000000000e-02 0.0000000000e+00
7.0000000000e-01 1.0000000000e-02 0.0000000000e+00
7.1000000000e-01 1.0000000000e-02 0.0000000000e+00
7.2000000000e-01 1.0000000000e-02 0.0000000000e+00
7.3000000000e-01 1.0000000000e-02 0.0000000000e+00
7.4000000000e-01 1.0000000000e-02 0.0000000000e+00
7.5000000000e-01 1.0000000000e-02 0.0000000000e+00
7.6000000000e-01 1.0000000000e-02 0.0000000000e+00
7.7000000000e-01 1.0000000000e-02 0.0000000000e+00
7.8000000000e-01 1.0000000000e-02 0.0000000000e+00
7.9000000000e-01 1.0000000000e-02 0.0000000000e+00
8.0000000000e-01 1.0000000000e-02 0.0000000000e+00
8.1000000000e-01 1.0000000000e-02 0.0000000000e+00
8.2000000000e-01 1.0000000000e-02 0.0000000000e+00
8.3000000000e-01 1.0000000000e-02 0.0000000000e+00
8.4000000000e-01 1.0000000000e-02 0.0000000000e+00
8.5000000000e-01 1.0000000000e-02 0.0000000000e+00
8.6000000000e-01 1.0000000000e-02 0.0000000000e+00
8.7000000000e-01 1.0000000000e-02 0.0000000000e+00
8.8000000000e-01 1.0000000000e-02 0.0000000000e+00
8.9000000000e-01 1.0000000000e-02 0.0000000000e+00
9.0000000000e-01 1.0000000000e-02 0.0000000000e+00
9.1000000000e-01 1.0000000000e-02 0.0000000000e+00
9.2000000000e-01 1.0000000000e-02 0.0000000000e+00
[...]
CELL_DATA 10000

SCALARS massDensity float
LOOKUP_TABLE default
1.2011571246e+00
1.2011649313e+00
1.2011866941e+00
1.2012186162e+00
1.2012604209e+00
1.2013117284e+00
1.2013720613e+00
1.2014408529e+00
1.2015174584e+00
1.2016011666e+00
1.2016912123e+00
1.2017867885e+00
1.2018870597e+00
1.2019911736e+00
1.2020982742e+00
1.2022075130e+00
1.2023180606e+00
1.2024291164e+00
1.2025399182e+00
1.2026497498e+00
1.2027579482e+00
1.2028639088e+00
1.2029670901e+00
1.2030670155e+00
1.2031632764e+00
1.2032555312e+00
1.2033435055e+00
1.2034269895e+00
1.2035058364e+00
1.2035799575e+00
1.2036493195e+00
1.2037139385e+00
1.2037738763e+00
1.2038292339e+00
1.2038801469e+00
1.2039267800e+00
1.2039693214e+00
1.2040079779e+00
1.2040429703e+00
1.2040745286e+00
1.2041028880e+00
1.2041282853e+00
1.2041509555e+00
1.2041711292e+00
1.2041890303e+00
1.2042048736e+00
1.2042188637e+00
1.2042311938e+00
1.2042420449e+00
1.2042515850e+00
1.2042599694e+00
1.2042673402e+00
1.2042738269e+00
1.2042795467e+00
1.2042846046e+00
1.2042890946e+00
1.2042930998e+00
1.2042966935e+00
1.2042999397e+00
1.2043028938e+00
1.2043056033e+00
1.2043081085e+00
1.2043104433e+00
1.2043126353e+00
1.2043147071e+00
1.2043166759e+00
1.2043185550e+00
1.2043203535e+00
1.2043220771e+00
1.2043237282e+00
1.2043253067e+00
1.2043268103e+00
1.2043282346e+00
1.2043295737e+00
1.2043308208e+00
1.2043319681e+00
1.2043330078e+00
1.2043339319e+00
1.2043347329e+00
1.2043354045e+00
1.2043359412e+00
1.2043363392e+00
1.2043365964e+00
1.2043367126e+00
1.2043366898e+00
1.2043365322e+00
1.2043362458e+00
1.2043358390e+00
1.2043353219e+00
1.2043347061e+00
1.2043340046e+00
1.2043332313e+00
1.2043324003e+00
1.2043315254e+00
1.2043306186e+00
1.2043296889e+00
1.2043287402e+00
1.2043277689e+00
1.2043267644e+00
1.2043274193e+00
1.2011649313e+00
1.2011720400e+00
1.2011933994e+00
1.2012250420e+00
1.2012666474e+00
1.2013178074e+00
1.2013780256e+00
1.2014467235e+00
1.2015232483e+00
1.2016068843e+00
1.2016968628e+00
1.2017923755e+00
1.2018925856e+00
1.2019966408e+00
1.2021036850e+00
1.2022128705e+00
1.2023233678e+00
1.2024343774e+00
1.2025451371e+00
1.2026549318e+00
1.2027630985e+00
1.2028690334e+00
1.2029721945e+00
1.2030721060e+00
1.2031683586e+00
1.2032606109e+00
1.2033485876e+00
1.2034320790e+00
1.2035109369e+00
1.2035850722e+00
1.2036544502e+00
1.2037190865e+00
1.2037790408e+00
1.2038344135e+00
1.2038853385e+00
1.2039319790e+00
1.2039745216e+00
1.2040131721e+00
1.2040481493e+00
1.2040796821e+00
1.2041080042e+00
1.2041333513e+00
1.2041559570e+00
1.2041760512e+00
1.2041938564e+00
1.2042095870e+00
1.2042234467e+00
1.2042356285e+00
1.2042463128e+00
1.2042556675e+00
1.2042638477e+00
1.2042709957e+00
1.2042772413e+00
1.2042827017e+00
1.2042874828e+00
1.2042916789e+00
1.2042953742e+00
1.2042986427e+00
1.2043015495e+00
1.2043041513e+00
1.2043064971e+00
1.2043086288e+00
1.2043105821e+00
1.2043123868e+00
1.2043140675e+00
1.2043156442e+00
1.2043171328e+00
1.2043185453e+00
1.2043198905e+00
1.2043211741e+00
1.2043223996e+00
1.2043235679e+00
1.2043246782e+00
1.2043257282e+00
1.2043267142e+00
1.2043276319e+00
1.2043284761e+00
1.2043292415e+00
1.2043299228e+00
1.2043305148e+00
1.2043310133e+00
1.2043314146e+00
1.2043317162e+00
1.2043319167e+00
1.2043320164e+00
1.2043320167e+00
1.2043319207e+00
1.2043317328e+00
1.2043314589e+00
1.2043311060e+00
1.2043306824e+00
1.2043301968e+00
1.2043296584e+00
1.2043290765e+00
1.2043284594e+00
1.2043278145e+00
1.2043271468e+00
1.2043264596e+00
1.2043257557e+00
1.2043269501e+00
1.2011866941e+00
1.2011933994e+00
1.2012144447e+00
1.2012457590e+00
1.2012870096e+00
1.2013377788e+00
1.2013975653e+00
1.2014657878e+00
1.2015417946e+00
1.2016248710e+00
1.2017142523e+00
1.2018091334e+00
1.2019086825e+00
1.2020120519e+00
1.2021183910e+00
1.2022268567e+00
1.2023366254e+00
1.2024469020e+00
1.2025569299e+00
1.2026659978e+00
1.2027734478e+00
1.2028786793e+00
1.2029811548e+00
1.2030804010e+00
1.2031760119e+00
1.2032676479e+00
1.2033550364e+00
1.2034379686e+00
1.2035162978e+00
1.2035899355e+00
1.2036588475e+00
1.2037230490e+00
1.2037826002e+00
1.2038376001e+00
1.2038881823e+00
1.2039345086e+00
1.2039767648e+00
1.2040151546e+00
1.2040498961e+00
1.2040812158e+00
1.2041093463e+00
1.2041345211e+00
1.2041569727e+00
1.2041769288e+00
1.2041946106e+00
1.2042102305e+00
1.2042239913e+00
1.2042360840e+00
1.2042466880e+00
1.2042559699e+00
1.2042640837e+00
1.2042711708e+00
1.2042773598e+00
1.2042827676e+00
1.2042874990e+00
1.2042916480e+00
1.2042952982e+00
1.2042985235e+00
1.2043013886e+00
1.2043039501e+00
1.2043062569e+00
1.2043083511e+00
1.2043102684e+00
1.2043120389e+00
1.2043136874e+00
1.2043152344e+00
1.2043166960e+00
1.2043180847e+00
1.2043194099e+00
1.2043206778e+00
1.2043218922e+00
1.2043230548e+00
1.2043241650e+00
1.2043252211e+00
1.2043262197e+00
1.2043271566e+00
1.2043280270e+00
1.2043288254e+00
1.2043295465e+00
1.2043301851e+00
1.2043307362e+00
1.2043311958e+00
1.2043315606e+00
1.2043318287e+00
1.2043319990e+00
1.2043320723e+00
1.2043320503e+00
1.2043319364e+00
1.2043317355e+00
1.2043314535e+00
1.2043310975e+00
1.2043306755e+00
1.2043301960e+00
1.2043296679e+00
1.2043290998e+00
1.2043285001e+00
1.2043278769e+00
1.2043272382e+00
1.2043265948e+00
1.2043281204e+00
1.2012186162e+00
1.2012250420e+00
1.2012457590e+00
1.2012766692e+00
1.2013174408e+00
1.2013676560e+00
1.2014268136e+00
1.2014943350e+00
1.2015695709e+00
1.2016518124e+00
1.2017402995e+00
1.2018342348e+00
1.2019327929e+00
1.2020351345e+00
1.2021404159e+00
1.2022478029e+00
1.2023564789e+00
1.2024656572e+00
1.2025745877e+00
1.2026825670e+00
1.2027889428e+00
1.2028931214e+00
1.2029945698e+00
1.2030928202e+00
1.2031874701e+00
1.2032781843e+00
1.2033646921e+00
1.2034467878e+00
1.2035243257e+00
1.2035972189e+00
1.2036654333e+00
1.2037289845e+00
1.2037879317e+00
1.2038423736e+00
1.2038924420e+00
1.2039382977e+00
1.2039801241e+00
1.2040181235e+00
1.2040525109e+00
1.2040835114e+00
1.2041113544e+00
1.2041362716e+00
1.2041584925e+00
1.2041782427e+00
1.2041957408e+00
1.2042111974e+00
1.2042248125e+00
1.2042367756e+00
1.2042472638e+00
1.2042564422e+00
1.2042644630e+00
1.2042714662e+00
1.2042775792e+00
1.2042829175e+00
1.2042875851e+00
1.2042916751e+00
1.2042952703e+00
1.2042984440e+00
1.2043012605e+00
1.2043037760e+00
1.2043060393e+00
1.2043080923e+00
1.2043099706e+00
1.2043117045e+00
1.2043133190e+00
1.2043148348e+00
1.2043162684e+00
1.2043176327e+00
1.2043189373e+00
1.2043201890e+00
1.2043213921e+00
1.2043225485e+00
1.2043236584e+00
1.2043247202e+00
1.2043257309e+00
1.2043266866e+00
1.2043275825e+00
1.2043284133e+00
1.2043291734e+00
1.2043298573e+00
1.2043304599e+00
1.2043309764e+00
1.2043314031e+00
1.2043317370e+00
1.2043319763e+00
1.2043321207e+00
1.2043321711e+00
1.2043321297e+00
1.2043320002e+00
1.2043317876e+00
1.2043314981e+00
1.2043311388e+00
1.2043307177e+00
1.2043302433e+00
1.2043297245e+00
1.2043291704e+00
1.2043285904e+00
1.2043279950e+00
1.2043273970e+00
1.2043292194e+00
1.2012604209e+00
1.2012666474e+00
1.2012870096e+00
1.2013174408e+00
1.2013576163e+00
1.2014071230e+00
1.2014654648e+00
1.2015320681e+00
1.2016062908e+00
1.2016874308e+00
1.2017747377e+00
1.2018674223e+00
1.2019646704e+00
1.2020656517e+00
1.2021695345e+00
1.2022754939e+00
1.2023827249e+00
1.2024904498e+00
1.2025979294e+00
1.2027044685e+00
1.2028094244e+00
1.2029122103e+00
1.2030123011e+00
1.2031092348e+00
1.2032026150e+00
1.2032921103e+00
1.2033774548e+00
1.2034584446e+00
1.2035349373e+00
1.2036068463e+00
1.2036741391e+00
1.2037368305e+00
1.2037949797e+00
1.2038486837e+00
1.2038980732e+00
1.2039433063e+00
1.2039845646e+00
1.2040220472e+00
1.2040559667e+00
1.2040865446e+00
1.2041140078e+00
1.2041385842e+00
1.2041605005e+00
1.2041799790e+00
1.2041972355e+00
1.2042124772e+00
1.2042259019e+00
1.2042376958e+00
1.2042480340e+00
1.2042570790e+00
1.2042649812e+00
1.2042718784e+00
1.2042778964e+00
1.2042831492e+00
1.2042877393e+00
1.2042917587e+00
1.2042952893e+00
1.2042984033e+00
1.2043011645e+00
1.2043036286e+00
1.2043058439e+00
1.2043078520e+00
1.2043096886e+00
1.2043113837e+00
1.2043129625e+00
1.2043144458e+00
1.2043158504e+00
1.2043171894e+00
1.2043184729e+00
1.2043197080e+00
1.2043208994e+00
1.2043220496e+00
1.2043231588e+00
1.2043242260e+00
1.2043252485e+00
1.2043262225e+00
1.2043271434e+00
1.2043280057e+00
1.2043288039e+00
1.2043295323e+00
1.2043301851e+00
1.2043307573e+00
1.2043312443e+00
1.2043316425e+00
1.2043319493e+00
1.2043321632e+00
1.2043322842e+00
1.2043323135e+00
1.2043322538e+00
1.2043321092e+00
1.2043318848e+00
1.2043315870e+00
1.2043312233e+00
1.2043308018e+00
1.2043303312e+00
1.2043298210e+00
1.2043292812e+00
1.2043287229e+00
1.2043281588e+00
1.2043302490e+00
1.2013117284e+00
1.2013178074e+00
1.2013377788e+00
1.2013676560e+00
1.2014071230e+00
1.2014557749e+00
1.2015131229e+00
1.2015786024e+00
1.2016515800e+00
1.2017313649e+00
1.2018172169e+00
1.2019083600e+00
1.2020039913e+00
1.2021032950e+00
1.2022054513e+00
1.2023096495e+00
1.2024150966e+00
1.2025210286e+00
1.2026267173e+00
1.2027314800e+00
1.2028346834e+00
1.2029357517e+00
1.2030341676e+00
1.2031294776e+00
1.2032212913e+00
1.2033092840e+00
1.2033931933e+00
1.2034728200e+00
1.2035480233e+00
1.2036187192e+00
1.2036848752e+00
1.2037465067e+00
1.2038036715e+00
1.2038564658e+00
1.2039050176e+00
1.2039494831e+00
1.2039900403e+00
1.2040268856e+00
1.2040602276e+00
1.2040902845e+00
1.2041172789e+00
1.2041414353e+00
1.2041629761e+00
1.2041821201e+00
1.2041990792e+00
1.2042140571e+00
1.2042272480e+00
1.2042388352e+00
1.2042489905e+00
1.2042578738e+00
1.2042656327e+00
1.2042724028e+00
1.2042783077e+00
1.2042834595e+00
1.2042879591e+00
1.2042918969e+00
1.2042953535e+00
1.2042984003e+00
1.2043010999e+00
1.2043035073e+00
1.2043056704e+00
1.2043076303e+00
1.2043094223e+00
1.2043110765e+00
1.2043126180e+00
1.2043140675e+00
1.2043154422e+00
1.2043167553e+00
1.2043180172e+00
1.2043192354e+00
1.2043204148e+00
1.2043215584e+00
1.2043226668e+00
1.2043237392e+00
1.2043247731e+00
1.2043257650e+00
1.2043267102e+00
1.2043276035e+00
1.2043284390e+00
1.2043292108e+00
1.2043299128e+00
1.2043305394e+00
1.2043310854e+00
1.2043315463e+00
1.2043319189e+00
1.2043322007e+00
1.2043323906e+00
1.2043324889e+00
1.2043324974e+00
1.2043324190e+00
1.2043322581e+00
1.2043320204e+00
1.2043317126e+00
1.2043313424e+00
1.2043309184e+00
1.2043304498e+00
1.2043299467e+00
1.2043294199e+00
1.2043288815e+00
1.2043312166e+00
1.2013720613e+00
1.2013780256e+00
1.2013975653e+00
1.2014268136e+00
1.2014654648e+00
1.2015131229e+00
1.2015693096e+00
1.2016334705e+00
1.2017049850e+00
1.2017831740e+00
1.2018673123e+00
1.2019566374e+00
1.2020503628e+00
1.2021476869e+00
1.2022478070e+00
1.2023499269e+00
1.2024532701e+00
1.2025570863e+00
1.2026606630e+00
1.2027633295e+00
1.2028644665e+00
1.2029635084e+00
1.2030599494e+00
1.2031533441e+00
1.2032433112e+00
1.2033295315e+00
1.2034117491e+00
1.2034897682e+00
1.2035634518e+00
1.2036327171e+00
1.2036975332e+00
1.2037579148e+00
1.2038139194e+00
1.2038656408e+00
1.2039132052e+00
1.2039567652e+00
1.2039964961e+00
1.2040325895e+00
1.2040652508e+00
1.2040946932e+00
1.2041211351e+00
1.2041447961e+00
1.2041658946e+00
1.2041846445e+00
1.2042012535e+00
1.2042159212e+00
1.2042288377e+00
1.2042401825e+00
1.2042501239e+00
1.2042588185e+00
1.2042664109e+00
1.2042730339e+00
1.2042788086e+00
1.2042838448e+00
1.2042882416e+00
1.2042920874e+00
1.2042954614e+00
1.2042984335e+00
1.2043010655e+00
1.2043034114e+00
1.2043055183e+00
1.2043074268e+00
1.2043091718e+00
1.2043107831e+00
1.2043122856e+00
1.2043137003e+00
1.2043150442e+00
1.2043163308e+00
1.2043175706e+00
1.2043187716e+00
1.2043199389e+00
1.2043210757e+00
1.2043221830e+00
1.2043232603e+00
1.2043243054e+00
1.2043253147e+00
1.2043262839e+00
1.2043272075e+00
1.2043280795e+00
1.2043288938e+00
1.2043296439e+00
1.2043303237e+00
1.2043309273e+00
1.2043314496e+00
1.2043318863e+00
1.2043322343e+00
1.2043324914e+00
1.2043326570e+00
1.2043327318e+00
1.2043327180e+00
1.2043326189e+00
1.2043324395e+00
1.2043321859e+00
1.2043318652e+00
1.2043314855e+00
1.2043310559e+00
1.2043305861e+00
1.2043300865e+00
1.2043295680e+00
1.2043321304e+00
1.2014408529e+00
1.2014467235e+00
1.2014657878e+00
1.2014943350e+00
1.2015320681e+00
1.2015786024e+00
1.2016334705e+00
1.2016961317e+00
1.2017659783e+00
1.2018423476e+00
1.2019245292e+00
1.2020117790e+00
1.2021033266e+00
1.2021983900e+00
1.2022961830e+00
1.2023959289e+00
1.2024968675e+00
1.2025982671e+00
1.2026994300e+00
1.2027997024e+00
1.2028984781e+00
1.2029952057e+00
1.2030893903e+00
1.2031805980e+00
1.2032684554e+00
1.2033526521e+00
1.2034329373e+00
1.2035091210e+00
1.2035810688e+00
1.2036487010e+00
1.2037119868e+00
1.2037709415e+00
1.2038256210e+00
1.2038761175e+00
1.2039225541e+00
1.2039650805e+00
1.2040038674e+00
1.2040391027e+00
1.2040709863e+00
1.2040997271e+00
1.2041255379e+00
1.2041486337e+00
1.2041692272e+00
1.2041875275e+00
1.2042037372e+00
1.2042180514e+00
1.2042306553e+00
1.2042417245e+00
1.2042514231e+00
1.2042599039e+00
1.2042673081e+00
1.2042737654e+00
1.2042793939e+00
1.2042843010e+00
1.2042885833e+00
1.2042923275e+00
1.2042956107e+00
1.2042985016e+00
1.2043010604e+00
1.2043033402e+00
1.2043053872e+00
1.2043072413e+00
1.2043089369e+00
1.2043105035e+00
1.2043119658e+00
1.2043133446e+00
1.2043146569e+00
1.2043159164e+00
1.2043171339e+00
1.2043183173e+00
1.2043194723e+00
1.2043206021e+00
1.2043217083e+00
1.2043227903e+00
1.2043238462e+00
1.2043248727e+00
1.2043258653e+00
1.2043268186e+00
1.2043277265e+00
1.2043285824e+00
1.2043293796e+00
1.2043301113e+00
1.2043307712e+00
1.2043313534e+00
1.2043318528e+00
1.2043322652e+00
1.2043325878e+00
1.2043328189e+00
1.2043329582e+00
1.2043330070e+00
1.2043329679e+00
1.2043328449e+00
1.2043326435e+00
1.2043323702e+00
1.2043320328e+00
1.2043316396e+00
1.2043312001e+00
1.2043307241e+00
1.2043302217e+00
1.2043329969e+00
1.2015174584e+00
1.2015232483e+00
1.2015417946e+00
1.2015695709e+00
1.2016062908e+00
1.2016515800e+00
1.2017049850e+00
1.2017659783e+00
1.2018339694e+00
1.2019083112e+00
1.2019883133e+00
1.2020732490e+00
1.2021623695e+00
1.2022549112e+00
1.2023501100e+00
1.2024472078e+00
1.2025454657e+00
1.2026441697e+00
1.2027426417e+00
1.2028402439e+00
1.2029363874e+00
1.2030305341e+00
1.2031222037e+00
1.2032109727e+00
1.2032964790e+00
1.2033784194e+00
1.2034565513e+00
1.2035306888e+00
1.2036007025e+00
1.2036665141e+00
1.2037280948e+00
1.2037854590e+00
1.2038386620e+00
1.2038877932e+00
1.2039329732e+00
1.2039743474e+00
1.2040120825e+00
1.2040463612e+00
1.2040773784e+00
1.2041053371e+00
1.2041304450e+00
1.2041529107e+00
1.2041729417e+00
1.2041907412e+00
1.2042065065e+00
1.2042204272e+00
1.2042326837e+00
1.2042434466e+00
1.2042528757e+00
1.2042611196e+00
1.2042683157e+00
1.2042745901e+00
1.2042800579e+00
1.2042848233e+00
1.2042889807e+00
1.2042926142e+00
1.2042957993e+00
1.2042986026e+00
1.2043010832e+00
1.2043032928e+00
1.2043052765e+00
1.2043070735e+00
1.2043087177e+00
1.2043102379e+00
1.2043116587e+00
1.2043130007e+00
1.2043142808e+00
1.2043155128e+00
1.2043167075e+00
1.2043178733e+00
1.2043190157e+00
1.2043201386e+00
1.2043212434e+00
1.2043223300e+00
1.2043233966e+00
1.2043244399e+00
1.2043254555e+00
1.2043264380e+00
1.2043273810e+00
1.2043282777e+00
1.2043291209e+00
1.2043299035e+00
1.2043306184e+00
1.2043312590e+00
1.2043318194e+00
1.2043322947e+00
1.2043326810e+00
1.2043329757e+00
1.2043331776e+00
1.2043332871e+00
1.2043333059e+00
1.2043332374e+00
1.2043330861e+00
1.2043328582e+00
1.2043325606e+00
1.2043322015e+00
1.2043317897e+00
1.2043313345e+00
1.2043308454e+00
1.2043338215e+00
1.2016011666e+00
1.2016068843e+00
1.2016248710e+00
1.2016518124e+00
1.2016874308e+00
1.2017313649e+00
1.2017831740e+00
1.2018423476e+00
1.2019083112e+00
1.2019804383e+00
1.2020580569e+00
1.2021404632e+00
1.2022269284e+00
1.2023167130e+00
1.2024090735e+00
1.2025032755e+00
1.2025986004e+00
1.2026943566e+00
1.2027898847e+00
1.2028845672e+00
1.2029778312e+00
1.2030691563e+00
1.2031580750e+00
1.2032441780e+00
1.2033271129e+00
1.2034065870e+00
1.2034823641e+00
1.2035542652e+00
1.2036221641e+00
1.2036859859e+00
1.2037457022e+00
1.2038013282e+00
1.2038529169e+00
1.2039005562e+00
1.2039443624e+00
1.2039844774e+00
1.2040210627e+00
1.2040542958e+00
1.2040843659e+00
1.2041114700e+00
1.2041358093e+00
1.2041575867e+00
1.2041770029e+00
1.2041942554e+00
1.2042095353e+00
1.2042230265e+00
1.2042349038e+00
1.2042453329e+00
1.2042544683e+00
1.2042624544e+00
1.2042694243e+00
1.2042755003e+00
1.2042807940e+00
1.2042854066e+00
1.2042894294e+00
1.2042929444e+00
1.2042960245e+00
1.2042987348e+00
1.2043011326e+00
1.2043032681e+00
1.2043051855e+00
1.2043069231e+00
1.2043085139e+00
1.2043099864e+00
1.2043113646e+00
1.2043126690e+00
1.2043139163e+00
1.2043151205e+00
1.2043162923e+00
1.2043174402e+00
1.2043185701e+00
1.2043196859e+00
1.2043207893e+00
1.2043218803e+00
1.2043229574e+00
1.2043240172e+00
1.2043250555e+00
1.2043260666e+00
1.2043270441e+00
1.2043279808e+00
1.2043288691e+00
1.2043297014e+00
1.2043304700e+00
1.2043311676e+00
1.2043317875e+00
1.2043323239e+00
1.2043327721e+00
1.2043331285e+00
1.2043333910e+00
1.2043335592e+00
1.2043336339e+00
1.2043336177e+00
1.2043335145e+00
1.2043333297e+00
1.2043330699e+00
1.2043327426e+00
1.2043323562e+00
1.2043319195e+00
1.2043314417e+00
1.2043346081e+00
1.2016912123e+00
1.2016968628e+00
1.2017142523e+00
1.2017402995e+00
1.2017747377e+00
1.2018172169e+00
1.2018673123e+00
1.2019245292e+00
1.2019883133e+00
1.2020580569e+00
1.2021331116e+00
1.2022127945e+00
1.2022964025e+00
1.2023832183e+00
1.2024725240e+00
1.2025636079e+00
1.2026557761e+00
1.2027483583e+00
1.2028407183e+00
1.2029322572e+00
1.2030224226e+00
1.2031107100e+00
1.2031966688e+00
1.2032799020e+00
1.2033600705e+00
1.2034368901e+00
1.2035101341e+00
1.2035796284e+00
1.2036452524e+00
1.2037069332e+00
1.2037646443e+00
1.2038183999e+00
1.2038682525e+00
1.2039142864e+00
1.2039566151e+00
1.2039953753e+00
1.2040307239e+00
1.2040628323e+00
1.2040918837e+00
1.2041180684e+00
1.2041415813e+00
1.2041626182e+00
1.2041813735e+00
1.2041980377e+00
1.2042127958e+00
1.2042258253e+00
1.2042372955e+00
1.2042473659e+00
1.2042561864e+00
1.2042638961e+00
1.2042706239e+00
1.2042764877e+00
1.2042815956e+00
1.2042860453e+00
1.2042899252e+00
1.2042933144e+00
1.2042962838e+00
1.2042988960e+00
1.2043012069e+00
1.2043032652e+00
1.2043051137e+00
1.2043067898e+00
1.2043083256e+00
1.2043097490e+00
1.2043110838e+00
1.2043123499e+00
1.2043135641e+00
1.2043147401e+00
1.2043158888e+00
1.2043170188e+00
1.2043181362e+00
1.2043192448e+00
1.2043203468e+00
1.2043214423e+00
1.2043225296e+00
1.2043236058e+00
1.2043246664e+00
1.2043257057e+00
1.2043267170e+00
1.2043276929e+00
1.2043286254e+00
1.2043295063e+00
1.2043303273e+00
1.2043310805e+00
1.2043317583e+00
1.2043323541e+00
1.2043328623e+00
1.2043332784e+00
1.2043335997e+00
1.2043338244e+00
1.2043339529e+00
1.2043339869e+00
1.2043339296e+00
1.2043337858e+00
1.2043335615e+00
1.2043332638e+00
1.2043329007e+00
1.2043324808e+00
1.2043320126e+00
1.2043353597e+00
1.2017867885e+00
1.2017923755e+00
1.2018091334e+00
1.2018342348e+00
1.2018674223e+00
1.2019083600e+00
1.2019566374e+00
1.2020117790e+00
1.2020732490e+00
1.2021404632e+00
1.2022127945e+00
1.2022895865e+00
1.2023701592e+00
1.2024538227e+00
1.2025398833e+00
1.2026276563e+00
1.2027164712e+00
1.2028056834e+00
1.2028946779e+00
1.2029828794e+00
1.2030697538e+00
1.2031548164e+00
1.2032376318e+00
1.2033178189e+00
1.2033950498e+00
1.2034690522e+00
1.2035396066e+00
1.2036065468e+00
1.2036697557e+00
1.2037291645e+00
1.2037847470e+00
1.2038365181e+00
1.2038845277e+00
1.2039288583e+00
1.2039696188e+00
1.2040069417e+00
1.2040409778e+00
1.2040718928e+00
1.2040998631e+00
1.2041250725e+00
1.2041477084e+00
1.2041679598e+00
1.2041860137e+00
1.2042020541e+00
1.2042162587e+00
1.2042287988e+00
1.2042398372e+00
1.2042495278e+00
1.2042580147e+00
1.2042654320e+00
1.2042719036e+00
1.2042775435e+00
1.2042824553e+00
1.2042867335e+00
1.2042904631e+00
1.2042937205e+00
1.2042965739e+00
1.2042990840e+00
1.2043013045e+00
1.2043032828e+00
1.2043050601e+00
1.2043066729e+00
1.2043081525e+00
1.2043095259e+00
1.2043108164e+00
1.2043120438e+00
1.2043132245e+00
1.2043143722e+00
1.2043154979e+00
1.2043166100e+00
1.2043177148e+00
1.2043188164e+00