# vtk DataFile Version 2.0
Blank
ASCII
DATASET STRUCTURED_GRID
DIMENSIONS 101 101 2
POINTS 20402 float
0.0000000000e+00 0.0000000000e+00 0.0000000000e+00
1.0000000000e-02 0.0000000000e+00 0.0000000000e+00
2.0000000000e-02 0.0000000000e+00 0.0000000000e+00
3.0000000000e-02 0.0000000000e+00 0.0000000000e+00
4.0000000000e-02 0.0000000000e+00 0.0000000000e+00
5.0000000000e-02 0.0000000000e+00 0.0000000000e+00
6.0000000000e-02 0.0000000000e+00 0.0000000000e+00
7.0000000000e-02 0.0000000000e+00 0.0000000000e+00
8.0000000000e-02 0.0000000000e+00 0.0000000000e+00
9.0000000000e-02 0.0000000000e+00 0.0000000000e+00
1.0000000000e-01 0.0000000000e+00 0.0000000000e+00
1.1000000000e-01 0.0000000000e+00 0.0000000000e+00
1.2000000000e-01 0.0000000000e+00 0.0000000000e+00
1.3000000000e-01 0.0000000000e+00 0.0000000000e+00
1.4000000000e-01 0.0000000000e+00 0.0000000000e+00
1.5000000000e-01 0.0000000000e+00 0.0000000000e+00
1.6000000000e-01 0.0000000000e+00 0.0000000000e+00
1.7000000000e-01 0.0000000000e+00 0.0000000000e+00
1.8000000000e-01 0.0000000000e+00 0.0000000000e+00
1.9000000000e-01 0.0000000000e+00 0.0000000000e+00
2.0000000000e-01 0.0000000000e+00 0.0000000000e+00
2.1000000000e-01 0.0000000000e+00 0.0000000000e+00
2.2000000000e-01 0.0000000000e+00 0.0000000000e+00
2.3000000000e-01 0.0000000000e+00 0.0000000000e+00
2.4000000000e-01 0.0000000000e+00 0.0000000000e+00
2.5000000000e-01 0.0000000000e+00 0.0000000000e+00
2.6000000000e-01 0.0000000000e+00 0.0000000000e+00
2.7000000000e-01 0.0000000000e+00 0.0000000000e+00
2.8000000000e-01 0.0000000000e+00 0.0000000000e+00
2.9000000000e-01 0.0000000000e+00 0.0000000000e+00
3.0000000000e-01 0.0000000000e+00 0.0000000000e+00
3.1000000000e-01 0.0000000000e+00 0.0000000000e+00
3.2000000000e-01 0.0000000000e+00 0.0000000000e+00
3.3000000000e-01 0.0000000000e+00 0.0000000000e+00
3.4000000000e-01 0.0000000000e+00 0.0000000000e+00
3.5000000000e-01 0.0000000000e+00 0.0000000000e+00
3.6000000000e-01 0.0000000000e+00 0.0000000000e+00
3.7000000000e-01 0.0000000000e+00 0.0000000000e+00
3.8000000000e-01 0.0000000000e+00 0.0000000000e+00
3.9000000000e-01 0.0000000000e+00 0.0000000000e+00
4.0000000000e-01 0.0000000000e+00 0.0000000000e+00
4.1000000000e-01 0.0000000000e+00 0.0000000000e+00
4.2000000000e-01 0.0000000000e+00 0.0000000000e+00
4.3000000000e-01 0.0000000000e+00 0.0000000000e+00
4.4000000000e-01 0.0000000000e+00 0.0000000000e+00
4.5000000000e-01 0.0000000000e+00 0.0000000000e+00
4.6000000000e-01 0.0000000000e+00 0.0000000000e+00
4.7000000000e-01 0.0000000000e+00 0.0000000000e+00
4.8000000000e-01 0.0000000000e+00 0.0000000000e+00
4.9000000000e-01 0.0000000000e+00 0.0000000000e+00
5.0000000000e-01 0.0000000000e+00 0.0000000000e+00
5.1000000000e-01 0.0000000000e+00 0.0000000000e+00
5.2000000000e-01 0.0000000000e+00 0.0000000000e+00
5.3000000000e-01 0.0000000000e+00 0.0000000000e+00
5.4000000000e-01 0.0000000000e+00 0.0000000000e+00
5.5000000000e-01 0.0000000000e+00 0.0000000000e+00
5.6000000000e-01 0.0000000000e+00 0.0000000000e+00
5.7000000000e-01 0.0000000000e+00 0.0000000000e+00
5.8000000000e-01 0.0000000000e+00 0.0000000000e+00
5.9000000000e-01 0.0000000000e+00 0.0000000000e+00
6.0000000000e-01 0.0000000000e+00 0.0000000000e+00
6.1000000000e-01 0.0000000000e+00 0.0000000000e+00
6.2000000000e-01 0.0000000000e+00 0.0000000000e+00
6.3000000000e-01 0.0000000000e+00 0.0000000000e+00
6.4000000000e-01 0.0000000000e+00 0.0000000000e+00
6.5000000000e-01 0.0000000000e+00 0.0000000000e+00
6.6000000000e-01 0.0000000000e+00 0.0000000000e+00
6.7000000000e-01 0.0000000000e+00 0.0000000000e+00
6.8000000000e-01 0.0000000000e+00 0.0000000000e+00
6.9000000000e-01 0.0000000000e+00 0.0000000000e+00
7.0000000000e-01 0.0000000000e+00 0.0000000000e+00
7.1000000000e-01 0.0000000000e+00 0.0000000000e+00
7.2000000000e-01 0.0000000000e+00 0.0000000000e+00
7.3000000000e-01 0.0000000000e+00 0.0000000000e+00
7.4000000000e-01 0.0000000000e+00 0.0000000000e+00
7.5000000000e-01 0.0000000000e+00 0.0000000000e+00
7.6000000000e-01 0.0000000000e+00 0.0000000000e+00
7.7000000000e-01 0.0000000000e+00 0.0000000000e+00
7.8000000000e-01 0.0000000000e+00 0.0000000000e+00
7.9000000000e-01 0.0000000000e+00 0.0000000000e+00
8.0000000000e-01 0.0000000000e+00 0.0000000000e+00
8.1000000000e-01 0.0000000000e+00 0.0000000000e+00
8.2000000000e-01 0.0000000000e+00 0.0000000000e+00
8.3000000000e-01 0.0000000000e+00 0.0000000000e+00
8.4000000000e-01 0.0000000000e+00 0.0000000000e+00
8.5000000000e-01 0.0000000000e+00 0.0000000000e+00
8.6000000000e-01 0.0000000000e+00 0.0000000000e+00
8.7000000000e-01 0.0000000000e+00 0.0000000000e+00
8.8000000000e-01 0.0000000000e+00 0.0000000000e+00
8.9000000000e-01 0.0000000000e+00 0.0000000000e+00
9.0000000000e-01 0.0000000000e+00 0.0000000000e+00
9.1000000000e-01 0.0000000000e+00 0.0000000000e+00
9.2000000000e-01 0.0000000000e+00 0.0000000000e+00
9.3000000000e-01 0.0000000000e+00 0.0000000000e+00
9.4000000000e-01 0.0000000000e+00 0.0000000000e+00
9.5000000000e-01 0.0000000000e+00 0.0000000000e+00
9.6000000000e-01 0.0000000000e+00 0.0000000000e+00
9.7000000000e-01 0.0000000000e+00 0.0000000000e+00
9.8000000000e-01 0.0000000000e+00 0.0000000000e+00
9.9000000000e-01 0.0000000000e+00 0.0000000000e+00
1.0000000000e+00 0.0000000000e+00 0.0000000000e+00
0.0000000000e+00 1.0000000000e-02 0.0000000000e+00
1.0000000000e-02 1.0000000000e-02 0.0000000000e+00
2.0000000000e-02 1.0000000000e-02 0.0000000000e+00
3.0000000000e-02 1.0000000000e-02 0.0000000000e+00
4.0000000000e-02 1.0000000000e-02 0.0000000000e+00
5.0000000000e-02 1.0000000000e-02 0.0000000000e+00
6.0000000000e-02 1.0000000000e-02 0.0000000000e+00
7.0000000000e-02 1.0000000000e-02 0.0000000000e+00
8.0000000000e-02 1.0000000000e-02 0.0000000000e+00
9.0000000000e-02 1.0000000000e-02 0.0000000000e+00
1.0000000000e-01 1.0000000000e-02 0.0000000000e+00
1.1000000000e-01 1.0000000000e-02 0.0000000000e+00
1.2000000000e-01 1.0000000000e-02 0.0000000000e+00
1.3000000000e-01 1.0000000000e-02 0.0000000000e+00
1.4000000000e-01 1.0000000000e-02 0.0000000000e+00
1.5000000000e-01 1.0000000000e-02 0.0000000000e+00
1.6000000000e-01 1.0000000000e-02 0.0000000000e+00
1.7000000000e-01 1.0000000000e-02 0.0000000000e+00
1.8000000000e-01 1.0000000000e-02 0.0000000000e+00
1.9000000000e-01 1.0000000000e-02 0.0000000000e+00
2.0000000000e-01 1.0000000000e-02 0.0000000000e+00
2.1000000000e-01 1.0000000000e-02 0.0000000000e+00
2.2000000000e-01 1.0000000000e-02 0.0000000000e+00
2.3000000000e-01 1.0000000000e-02 0.0000000000e+00
2.4000000000e-01 1.0000000000e-02 0.0000000000e+00
2.5000000000e-01 1.0000000000e-02 0.0000000000e+00
2.6000000000e-01 1.0000000000e-02 0.0000000000e+00
2.7000000000e-01 1.0000000000e-02 0.0000000000e+00
2.8000000000e-01 1.0000000000e-02 0.0000000000e+00
2.9000000000e-01 1.0000000000e-02 0.0000000000e+00
3.0000000000e-01 1.0000000000e-02 0.0000000000e+00
3.1000000000e-01 1.0000000000e-02 0.0000000000e+00
3.2000000000e-01 1.0000000000e-02 0.0000000000e+00
3.3000000000e-01 1.0000000000e-02 0.0000000000e+00
3.4000000000e-01 1.0000000000e-02 0.0000000000e+00
3.5000000000e-01 1.0000000000e-02 0.0000000000e+00
3.6000000000e-01 1.0000000000e-02 0.0000000000e+00
3.7000000000e-01 1.0000000000e-02 0.0000000000e+00
3.8000000000e-01 1.0000000000e-02 0.0000000000e+00
3.9000000000e-01 1.0000000000e-02 0.0000000000e+00
4.0000000000e-01 1.0000000000e-02 0.0000000000e+00
4.1000000000e-01 1.0000000000e-02 0.0000000000e+00
4.2000000000e-01 1.0000000000e-02 0.0000000000e+00
4.3000000000e-01 1.0000000000e-02 0.0000000000e+00
4.4000000000e-01 1.0000000000e-02 0.0000000000e+00
4.5000000000e-01 1.0000000000e-02 0.0000000000e+00
4.6000000000e-01 1.0000000000e-02 0.0000000000e+00
4.7000000000e-01 1.0000000000e-02 0.0000000000e+00
4.8000000000e-01 1.0000000000e-02 0.0000000000e+00
4.9000000000e-01 1.0000000000e-02 0.0000000000e+00
5.0000000000e-01 1.0000000000e-02 0.0000000000e+00
5.1000000000e-01 1.0000000000e-02 0.0000000000e+00
5.2000000000e-01 1.0000000000e-02 0.0000000000e+00
5.3000000000e-01 1.0000000000e-02 0.0000000000e+00
5.4000000000e-01 1.0000000000e-02 0.0000000000e+00
5.5000000000e-01 1.0000000000e-02 0.0000000000e+00
5.6000000000e-01 1.0000000000e-02 0.0000000000e+00
5.7000000000e-01 1.0000000000e-02 0.0000000000e+00
5.8000000000e-01 1.0000000000e-02 0.0000000000e+00
5.9000000000e-01 1.0000000000e-02 0.0000000000e+00
6.0000000000e-01 1.0000000000e-02 0.0000000000e+00
6.1000000000e-01 1.0000000000e-02 0.0000000000e+00
6.2000000000e-01 1.0000000000e-02 0.0000000000e+00
6.3000000000e-01 1.0000000000e-02 0.0000000000e+00
6.4000000000e-01 1.0000000000e-02 0.0000000000e+00
6.5000000000e-01 1.0000000000e-02 0.0000000000e+00
6.6000000000e-01 1.0000000000e-02 0.0000000000e+00
6.7000000000e-01 1.0000000000e-02 0.0000000000e+00
6.8000000000e-01 1.0000000000e-02 0.0000000000e+00
6.9000000000e-01 1.0000000000e-02 0.0000000000e+00
7.0000000000e-01 1.0000000000e-02 0.0000000000e+00
7.1000000000e-01 1.0000000000e-02 0.0000000000e+00
7.2000000000e-01 1.0000000000e-02 0.0000000000e+00
7.3000000000e-01 1.0000000000e-02 0.0000000000e+00
7.4000000000e-01 1.0000000000e-02 0.0000000000e+00
7.5000000000e-01 1.0000000000e-02 0.0000000000e+00
7.6000000000e-01 1.0000000000e-02 0.0000000000e+00
7.7000000000e-01 1.0000000000e-02 0.0000000000e+00
7.8000000000e-01 1.0000000000e-02 0.0000000000e+00
7.9000000000e-01 1.0000000000e-02 0.0000000000e+00
8.0000000000e-01 1.0000000000e-02 0.0000000000e+00
8.1000000000e-01 1.0000000000e-02 0.0000000000e+00
8.2000000000e-01 1.0000000000e-02 0.0000000000e+00
8.3000000000e-01 1.0000000000e-02 0.0000000000e+00
8.4000000000e-01 1.0000000000e-02 0.0000000000e+00
8.5000000000e-01 1.0000000000e-02 0.0000000000e+00
8.6000000000e-01 1.0000000000e-02 0.0000000000e+00
8.7000000000e-01 1.0000000000e-02 0.0000000000e+00
8.8000000000e-01 1.0000000000e-02 0.0000000000e+00
8.9000000000e-01 1.0000000000e-02 0.0000000000e+00
9.0000000000e-01 1.0000000000e-02 0.0000000000e+00
9.1000000000e-01 1.0000000000e-02 0.0000000000e+00
9.2000000000e-01 1.0000000000e-02 0.0000000000e+00
[...]
CELL_DATA 10000

SCALARS massDensity float
LOOKUP_TABLE default
1.1946690631e+00
1.1947933291e+00
1.1949739074e+00
1.1952429688e+00
1.1955920977e+00
1.1960108996e+00
1.1964875235e+00
1.1970091309e+00
1.1975624594e+00
1.1981343015e+00
1.1987120318e+00
1.1992839903e+00
1.1998398677e+00
1.2003709165e+00
1.2008701391e+00
1.2013323053e+00
1.2017539496e+00
1.2021332260e+00
1.2024697652e+00
1.2027644317e+00
1.2030191125e+00
1.2032364476e+00
1.2034196173e+00
1.2035721036e+00
1.2036975221e+00
1.2037994466e+00
1.2038813050e+00
1.2039462748e+00
1.2039972408e+00
1.2040367505e+00
1.2040670185e+00
1.2040899235e+00
1.2041070394e+00
1.2041196548e+00
1.2041288153e+00
1.2041353491e+00
1.2041399093e+00
1.2041429980e+00
1.2041450011e+00
1.2041462072e+00
1.2041468338e+00
1.2041470398e+00
1.2041469438e+00
1.2041466314e+00
1.2041461672e+00
1.2041455989e+00
1.2041449642e+00
1.2041442936e+00
1.2041436138e+00
1.2041429494e+00
1.2041423250e+00
1.2041417664e+00
1.2041413011e+00
1.2041409602e+00
1.2041407777e+00
1.2041407933e+00
1.2041410503e+00
1.2041415996e+00
1.2041424969e+00
1.2041438071e+00
1.2041456009e+00
1.2041479603e+00
1.2041509742e+00
1.2041547443e+00
1.2041593807e+00
1.2041650078e+00
1.2041717588e+00
1.2041797828e+00
1.2041892374e+00
1.2042002961e+00
1.2042131393e+00
1.2042279610e+00
1.2042449576e+00
1.2042643324e+00
1.2042862818e+00
1.2043109956e+00
1.2043386389e+00
1.2043693479e+00
1.2044032051e+00
1.2044402316e+00
1.2044803566e+00
1.2045234078e+00
1.2045690802e+00
1.2046169318e+00
1.2046663601e+00
1.2047166129e+00
1.2047667830e+00
1.2048158432e+00
1.2048626647e+00
1.2049060771e+00
1.2049449016e+00
1.2049780204e+00
1.2050043974e+00
1.2050231173e+00
1.2050333465e+00
1.2050342865e+00
1.2050250297e+00
1.2050044392e+00
1.2049711083e+00
1.2050681296e+00
1.1947933291e+00
1.1949237885e+00
1.1951061639e+00
1.1953748345e+00
1.1957219243e+00
1.1961374786e+00
1.1966099362e+00
1.1971267330e+00
1.1976747841e+00
1.1982410837e+00
1.1988131289e+00
1.1993794166e+00
1.1999297215e+00
1.2004554125e+00
1.2009495415e+00
1.2014069562e+00
1.2018242086e+00
1.2021994958e+00
1.2025324398e+00
1.2028239200e+00
1.2030757959e+00
1.2032907027e+00
1.2034717825e+00
1.2036225009e+00
1.2037464318e+00
1.2038471282e+00
1.2039279781e+00
1.2039921386e+00
1.2040424596e+00
1.2040814717e+00
1.2041113610e+00
1.2041339933e+00
1.2041509207e+00
1.2041634232e+00
1.2041725297e+00
1.2041790636e+00
1.2041836658e+00
1.2041868354e+00
1.2041889495e+00
1.2041902952e+00
1.2041910832e+00
1.2041914712e+00
1.2041915724e+00
1.2041914710e+00
1.2041912267e+00
1.2041908850e+00
1.2041904789e+00
1.2041900352e+00
1.2041895753e+00
1.2041891186e+00
1.2041886833e+00
1.2041882876e+00
1.2041879510e+00
1.2041876944e+00
1.2041875414e+00
1.2041875178e+00
1.2041876538e+00
1.2041879821e+00
1.2041885412e+00
1.2041893727e+00
1.2041905255e+00
1.2041920519e+00
1.2041940132e+00
1.2041964745e+00
1.2041995112e+00
1.2042032031e+00
1.2042076412e+00
1.2042129213e+00
1.2042191510e+00
1.2042264423e+00
1.2042349192e+00
1.2042447087e+00
1.2042559486e+00
1.2042687764e+00
1.2042833374e+00
1.2042997708e+00
1.2043182157e+00
1.2043387948e+00
1.2043616171e+00
1.2043867570e+00
1.2044142542e+00
1.2044440872e+00
1.2044761711e+00
1.2045103280e+00
1.2045462863e+00
1.2045836536e+00
1.2046219246e+00
1.2046604634e+00
1.2046985281e+00
1.2047352687e+00
1.2047697705e+00
1.2048010655e+00
1.2048281879e+00
1.2048501848e+00
1.2048661677e+00
1.2048753103e+00
1.2048769006e+00
1.2048703848e+00
1.2048555888e+00
1.2049884626e+00
1.1949739074e+00
1.1951061639e+00
1.1952863761e+00
1.1955506548e+00
1.1958914688e+00
1.1962991489e+00
1.1967624796e+00
1.1972691604e+00
1.1978064358e+00
1.1983615374e+00
1.1989222601e+00
1.1994772967e+00
1.2000166655e+00
1.2005318739e+00
1.2010161473e+00
1.2014644065e+00
1.2018733036e+00
1.2022410473e+00
1.2025672946e+00
1.2028528877e+00
1.2030996725e+00
1.2033102159e+00
1.2034876163e+00
1.2036352574e+00
1.2037566570e+00
1.2038552863e+00
1.2039344775e+00
1.2039973152e+00
1.2040466017e+00
1.2040848084e+00
1.2041140852e+00
1.2041362531e+00
1.2041528390e+00
1.2041650908e+00
1.2041740217e+00
1.2041804330e+00
1.2041849569e+00
1.2041880778e+00
1.2041901687e+00
1.2041915071e+00
1.2041923022e+00
1.2041927056e+00
1.2041928304e+00
1.2041927568e+00
1.2041925450e+00
1.2041922378e+00
1.2041918686e+00
1.2041914623e+00
1.2041910405e+00
1.2041906214e+00
1.2041902225e+00
1.2041898613e+00
1.2041895561e+00
1.2041893269e+00
1.2041891954e+00
1.2041891869e+00
1.2041893283e+00
1.2041896518e+00
1.2041901915e+00
1.2041909882e+00
1.2041920851e+00
1.2041935332e+00
1.2041953865e+00
1.2041977078e+00
1.2042005637e+00
1.2042040303e+00
1.2042081878e+00
1.2042131266e+00
1.2042189410e+00
1.2042257363e+00
1.2042336206e+00
1.2042427131e+00
1.2042531347e+00
1.2042650163e+00
1.2042784885e+00
1.2042936896e+00
1.2043107534e+00
1.2043298160e+00
1.2043510004e+00
1.2043744199e+00
1.2044001582e+00
1.2044282684e+00
1.2044587459e+00
1.2044915235e+00
1.2045264401e+00
1.2045632344e+00
1.2046015153e+00
1.2046407634e+00
1.2046803123e+00
1.2047193678e+00
1.2047570088e+00
1.2047922306e+00
1.2048239659e+00
1.2048511516e+00
1.2048727658e+00
1.2048879171e+00
1.2048959139e+00
1.2048964318e+00
1.2048897255e+00
1.2050450447e+00
1.1952429688e+00
1.1953748345e+00
1.1955506548e+00
1.1958078403e+00
1.1961390745e+00
1.1965350580e+00
1.1969849053e+00
1.1974767573e+00
1.1979982105e+00
1.1985369382e+00
1.1990810582e+00
1.1996196524e+00
1.2001429942e+00
1.2006428902e+00
1.2011127293e+00
1.2015476246e+00
1.2019442959e+00
1.2023010407e+00
1.2026175006e+00
1.2028945225e+00
1.2031338769e+00
1.2033380784e+00
1.2035101170e+00
1.2036532946e+00
1.2037710106e+00
1.2038666476e+00
1.2039434272e+00
1.2040043533e+00
1.2040521349e+00
1.2040891783e+00
1.2041175611e+00
1.2041390565e+00
1.2041551387e+00
1.2041670239e+00
1.2041756888e+00
1.2041819153e+00
1.2041863114e+00
1.2041893509e+00
1.2041913914e+00
1.2041927053e+00
1.2041934920e+00
1.2041939012e+00
1.2041940398e+00
1.2041939878e+00
1.2041938014e+00
1.2041935237e+00
1.2041931854e+00
1.2041928119e+00
1.2041924229e+00
1.2041920364e+00
1.2041916688e+00
1.2041913369e+00
1.2041910581e+00
1.2041908510e+00
1.2041907366e+00
1.2041907377e+00
1.2041908807e+00
1.2041911943e+00
1.2041917120e+00
1.2041924699e+00
1.2041935100e+00
1.2041948776e+00
1.2041966247e+00
1.2041988069e+00
1.2042014878e+00
1.2042047343e+00
1.2042086223e+00
1.2042132310e+00
1.2042186488e+00
1.2042249671e+00
1.2042322870e+00
1.2042407118e+00
1.2042503549e+00
1.2042613319e+00
1.2042737687e+00
1.2042877933e+00
1.2043035444e+00
1.2043211611e+00
1.2043407902e+00
1.2043625722e+00
1.2043866447e+00
1.2044131208e+00
1.2044420858e+00
1.2044735668e+00
1.2045075213e+00
1.2045438012e+00
1.2045821386e+00
1.2046221122e+00
1.2046631430e+00
1.2047044768e+00
1.2047452041e+00
1.2047842706e+00
1.2048205322e+00
1.2048527985e+00
1.2048799242e+00
1.2049008856e+00
1.2049149163e+00
1.2049216344e+00
1.2049212432e+00
1.2050946956e+00
1.1955920977e+00
1.1957219243e+00
1.1958914688e+00
1.1961390745e+00
1.1964577301e+00
1.1968384630e+00
1.1972708799e+00
1.1977435497e+00
1.1982446252e+00
1.1987622175e+00
1.1992849759e+00
1.1998023626e+00
1.2003050920e+00
1.2007852471e+00
1.2012365292e+00
1.2016542040e+00
1.2020351655e+00
1.2023777457e+00
1.2026816376e+00
1.2029476290e+00
1.2031774505e+00
1.2033734968e+00
1.2035386633e+00
1.2036761052e+00
1.2037891056e+00
1.2038808998e+00
1.2039545958e+00
1.2040130673e+00
1.2040589265e+00
1.2040944751e+00
1.2041217160e+00
1.2041423444e+00
1.2041577824e+00
1.2041691908e+00
1.2041775130e+00
1.2041834939e+00
1.2041877218e+00
1.2041906468e+00
1.2041926159e+00
1.2041938866e+00
1.2041946535e+00
1.2041950573e+00
1.2041952031e+00
1.2041951650e+00
1.2041949991e+00
1.2041947448e+00
1.2041944332e+00
1.2041940871e+00
1.2041937264e+00
1.2041933675e+00
1.2041930266e+00
1.2041927193e+00
1.2041924619e+00
1.2041922723e+00
1.2041921698e+00
1.2041921764e+00
1.2041923161e+00
1.2041926165e+00
1.2041931078e+00
1.2041938248e+00
1.2041948051e+00
1.2041960921e+00
1.2041977320e+00
1.2041997779e+00
1.2042022858e+00
1.2042053192e+00
1.2042089444e+00
1.2042132356e+00
1.2042182694e+00
1.2042241309e+00
1.2042309069e+00
1.2042386934e+00
1.2042475888e+00
1.2042577021e+00
1.2042691466e+00
1.2042820494e+00
1.2042965450e+00
1.2043127853e+00
1.2043309312e+00
1.2043511597e+00
1.2043736507e+00
1.2043985866e+00
1.2044261287e+00
1.2044564058e+00
1.2044894789e+00
1.2045253190e+00
1.2045637646e+00
1.2046044985e+00
1.2046470127e+00
1.2046906011e+00
1.2047343507e+00
1.2047771700e+00
1.2048178213e+00
1.2048549965e+00
1.2048873915e+00
1.2049138290e+00
1.2049333658e+00
1.2049454513e+00
1.2049500263e+00
1.2051384788e+00
1.1960108996e+00
1.1961374786e+00
1.1962991489e+00
1.1965350580e+00
1.1968384630e+00
1.1972008692e+00
1.1976123371e+00
1.1980620584e+00
1.1985387095e+00
1.1990310519e+00
1.1995282327e+00
1.2000202967e+00
1.2004983583e+00
1.2009549498e+00
1.2013840329e+00
1.2017811593e+00
1.2021433355e+00
1.2024690207e+00
1.2027578911e+00
1.2030107324e+00
1.2032291652e+00
1.2034154953e+00
1.2035724563e+00
1.2037030699e+00
1.2038104420e+00
1.2038976653e+00
1.2039676818e+00
1.2040232361e+00
1.2040668012e+00
1.2041005744e+00
1.2041264512e+00
1.2041460502e+00
1.2041607158e+00
1.2041715575e+00
1.2041794655e+00
1.2041851527e+00
1.2041891730e+00
1.2041919584e+00
1.2041938342e+00
1.2041950487e+00
1.2041957832e+00
1.2041961741e+00
1.2041963187e+00
1.2041962896e+00
1.2041961380e+00
1.2041959031e+00
1.2041956128e+00
1.2041952902e+00
1.2041949530e+00
1.2041946176e+00
1.2041942986e+00
1.2041940113e+00
1.2041937708e+00
1.2041935940e+00
1.2041934992e+00
1.2041935066e+00
1.2041936392e+00
1.2041939220e+00
1.2041943840e+00
1.2041950565e+00
1.2041959755e+00
1.2041971797e+00
1.2041987132e+00
1.2042006228e+00
1.2042029616e+00
1.2042057852e+00
1.2042091557e+00
1.2042131372e+00
1.2042178010e+00
1.2042232195e+00
1.2042294729e+00
1.2042366430e+00
1.2042448213e+00
1.2042541029e+00
1.2042645972e+00
1.2042764226e+00
1.2042897188e+00
1.2043046420e+00
1.2043213762e+00
1.2043401260e+00
1.2043611221e+00
1.2043846052e+00
1.2044108200e+00
1.2044399843e+00
1.2044722675e+00
1.2045077450e+00
1.2045463646e+00
1.2045878980e+00
1.2046319101e+00
1.2046777280e+00
1.2047244389e+00
1.2047708995e+00
1.2048157839e+00
1.2048576454e+00
1.2048950213e+00
1.2049265370e+00
1.2049510509e+00
1.2049677669e+00
1.2049763478e+00
1.2051775551e+00
1.1964875235e+00
1.1966099362e+00
1.1967624796e+00
1.1969849053e+00
1.1972708799e+00
1.1976123371e+00
1.1979999704e+00
1.1984235385e+00
1.1988724466e+00
1.1993360480e+00
1.1998041955e+00
1.2002674534e+00
1.2007175244e+00
1.2011473218e+00
1.2015512227e+00
1.2019249922e+00
1.2022658652e+00
1.2025723530e+00
1.2028441945e+00
1.2030820993e+00
1.2032876274e+00
1.2034629257e+00
1.2036105936e+00
1.2037334569e+00
1.2038344589e+00
1.2039164955e+00
1.2039823506e+00
1.2040345951e+00
1.2040755673e+00
1.2041073255e+00
1.2041316615e+00
1.2041500905e+00
1.2041638840e+00
1.2041740791e+00
1.2041815188e+00
1.2041868680e+00
1.2041906525e+00
1.2041932737e+00
1.2041950416e+00
1.2041961855e+00
1.2041968796e+00
1.2041972489e+00
1.2041973873e+00
1.2041973608e+00
1.2041972198e+00
1.2041969990e+00
1.2041967265e+00
1.2041964225e+00
1.2041961050e+00
1.2041957885e+00
1.2041954875e+00
1.2041952157e+00
1.2041949879e+00
1.2041948196e+00
1.2041947280e+00
1.2041947322e+00
1.2041948533e+00
1.2041951152e+00
1.2041955440e+00
1.2041961697e+00
1.2041970244e+00
1.2041981450e+00
1.2041995705e+00
1.2042013454e+00
1.2042035161e+00
1.2042061347e+00
1.2042092547e+00
1.2042129358e+00
1.2042172382e+00
1.2042222285e+00
1.2042279741e+00
1.2042345499e+00
1.2042420338e+00
1.2042505152e+00
1.2042600924e+00
1.2042708840e+00
1.2042830273e+00
1.2042966918e+00
1.2043120772e+00
1.2043294238e+00
1.2043490048e+00
1.2043711265e+00
1.2043961068e+00
1.2044242574e+00
1.2044558439e+00
1.2044910480e+00
1.2045299131e+00
1.2045722981e+00
1.2046178271e+00
1.2046658582e+00
1.2047154659e+00
1.2047654546e+00
1.2048143965e+00
1.2048607091e+00
1.2049027503e+00
1.2049389515e+00
1.2049679403e+00
1.2049886887e+00
1.2050005718e+00
1.2052129227e+00
1.1970091309e+00
1.1971267330e+00
1.1972691604e+00
1.1974767573e+00
1.1977435497e+00
1.1980620584e+00
1.1984235385e+00
1.1988185049e+00
1.1992370112e+00
1.1996692048e+00
1.2001055586e+00
1.2005373501e+00
1.2009567831e+00
1.2013573203e+00
1.2017336671e+00
1.2020819367e+00
1.2023995077e+00
1.2026850430e+00
1.2029382641e+00
1.2031598724e+00
1.2033512942e+00
1.2035145612e+00
1.2036520739e+00
1.2037664889e+00
1.2038605316e+00
1.2039369177e+00
1.2039982271e+00
1.2040468681e+00
1.2040850080e+00
1.2041145738e+00
1.2041372258e+00
1.2041543827e+00
1.2041672212e+00
1.2041767135e+00
1.2041836382e+00
1.2041886198e+00
1.2041921422e+00
1.2041945838e+00
1.2041962287e+00
1.2041972941e+00
1.2041979384e+00
1.2041982811e+00
1.2041984069e+00
1.2041983796e+00
1.2041982438e+00
1.2041980341e+00
1.2041977747e+00
1.2041974862e+00
1.2041971839e+00
1.2041968827e+00
1.2041965953e+00
1.2041963352e+00
1.2041961157e+00
1.2041959518e+00
1.2041958594e+00
1.2041958563e+00
1.2041959622e+00
1.2041961992e+00
1.2041965919e+00
1.2041971672e+00
1.2041979559e+00
1.2041989904e+00
1.2042003080e+00
1.2042019473e+00
1.2042039521e+00
1.2042063672e+00
1.2042092423e+00
1.2042126278e+00
1.2042165786e+00
1.2042211501e+00
1.2042264031e+00
1.2042324000e+00
1.2042392119e+00
1.2042469167e+00
1.2042556093e+00
1.2042654019e+00
1.2042764381e+00
1.2042888942e+00
1.2043029937e+00
1.2043190060e+00
1.2043372542e+00
1.2043581025e+00
1.2043819470e+00
1.2044091842e+00
1.2044401770e+00
1.2044752022e+00
1.2045143960e+00
1.2045576922e+00
1.2046047681e+00
1.2046550009e+00
1.2047074466e+00
1.2047608468e+00
1.2048136707e+00
1.2048641893e+00
1.2049105876e+00
1.2049510896e+00
1.2049841124e+00
1.2050083879e+00
1.2050230653e+00
1.2052453332e+00
1.1975624594e+00
1.1976747841e+00
1.1978064358e+00
1.1979982105e+00
1.1982446252e+00
1.1985387095e+00
1.1988724466e+00
1.1992370112e+00
1.1996232926e+00
1.2000221262e+00
1.2004247941e+00
1.2008231797e+00
1.2012101610e+00
1.2015796462e+00
1.2019268155e+00
1.2022480325e+00
1.2025409351e+00
1.2028042492e+00
1.2030377637e+00
1.2032420939e+00
1.2034185917e+00
1.2035691062e+00
1.2036958795e+00
1.2038013422e+00
1.2038880287e+00
1.2039584283e+00
1.2040149355e+00
1.2040597590e+00
1.2040949086e+00
1.2041221514e+00
1.2041430267e+00
1.2041588345e+00
1.2041706664e+00
1.2041794116e+00
1.2041857936e+00
1.2041903822e+00
1.2041936283e+00
1.2041958756e+00
1.2041973900e+00
1.2041983676e+00
1.2041989580e+00
1.2041992678e+00
1.2041993779e+00
1.2041993447e+00
1.2041992116e+00
1.2041990083e+00
1.2041987592e+00
1.2041984818e+00
1.2041981917e+00
1.2041979016e+00
1.2041976243e+00
1.2041973717e+00
1.2041971569e+00
1.2041969933e+00
1.2041968961e+00
1.2041968818e+00
1.2041969687e+00
1.2041971774e+00
1.2041975303e+00
1.2041980528e+00
1.2041987722e+00
1.2041997194e+00
1.2042009270e+00
1.2042024312e+00
1.2042042697e+00
1.2042064841e+00
1.2042091163e+00
1.2042122120e+00
1.2042158165e+00
1.2042199791e+00
1.2042247492e+00
1.2042301824e+00
1.2042363383e+00
1.2042432895e+00
1.2042511223e+00
1.2042599502e+00
1.2042699174e+00
1.2042812150e+00
1.2042940850e+00
1.2043088335e+00
1.2043258274e+00
1.2043454946e+00
1.2043683027e+00
1.2043947343e+00
1.2044252417e+00
1.2044601932e+00
1.2044998076e+00
1.2045440856e+00
1.2045927470e+00
1.2046451784e+00
1.2047004080e+00
1.2047571079e+00
1.2048136377e+00
1.2048681240e+00
1.2049185743e+00
1.2049630222e+00
1.2049996722e+00
1.2050270598e+00
1.2050441206e+00
1.2052753432e+00
1.1981343015e+00
1.1982410837e+00
1.1983615374e+00
1.1985369382e+00
1.1987622175e+00
1.1990310519e+00
1.1993360480e+00
1.1996692048e+00
1.2000221262e+00
1.2003865109e+00
1.2007543240e+00
1.2011182240e+00
1.2014716407e+00
1.2018090786e+00
1.2021260800e+00
1.2024193846e+00
1.2026867894e+00
1.2029271820e+00
1.2031403334e+00
1.2033268466e+00
1.2034879274e+00
1.2036252963e+00
1.2037409782e+00
1.2038372164e+00
1.2039163074e+00
1.2039805414e+00
1.2040320908e+00
1.2040729848e+00
1.2041050472e+00
1.2041299005e+00
1.2041489407e+00
1.2041633618e+00
1.2041741526e+00
1.2041821307e+00
1.2041879499e+00
1.2041921352e+00
1.2041950927e+00
1.2041971403e+00
1.2041985162e+00
1.2041994032e+00
1.2041999337e+00
1.2042002084e+00
1.2042002982e+00
1.2042002570e+00
1.2042001222e+00
1.2041999231e+00
1.2041996803e+00
1.2041994113e+00
1.2041991293e+00
1.2041988473e+00
1.2041985760e+00
1.2041983275e+00
1.2041981133e+00
1.2041979464e+00
1.2041978406e+00
1.2041978113e+00
1.2041978756e+00
1.2041980522e+00
1.2041983622e+00
1.2041988284e+00
1.2041994765e+00
1.2042003336e+00
1.2042014301e+00
1.2042027975e+00
1.2042044705e+00
1.2042064842e+00
1.2042088764e+00
1.2042116845e+00
1.2042149484e+00
1.2042187074e+00
1.2042230043e+00
1.2042278836e+00
1.2042333988e+00
1.2042396129e+00
1.2042466101e+00
1.2042545006e+00
1.2042634366e+00
1.2042736195e+00
1.2042853174e+00
1.2042988685e+00
1.2043146899e+00
1.2043332682e+00
1.2043551453e+00
1.2043808841e+00
1.2044110234e+00
1.2044460152e+00
1.2044861523e+00
1.2045314935e+00
1.2045817882e+00
1.2046364242e+00
1.2046943895e+00
1.2047542821e+00
1.2048143469e+00
1.2048725654e+00
1.2049267770e+00
1.2049748281e+00
1.2050147419e+00
1.2050448641e+00
1.2050639790e+00
1.2053033235e+00
1.1987120318e+00
1.1988131289e+00
1.1989222601e+00
1.1990810582e+00
1.1992849759e+00
1.1995282327e+00
1.1998041955e+00
1.2001055586e+00
1.2004247941e+00
1.2007543240e+00
1.2010869529e+00
1.2014159749e+00
1.2017355187e+00
1.2020405561e+00
1.2023271202e+00
1.2025922136e+00
1.2028338996e+00
1.2030511324e+00
1.2032437500e+00
1.2034122657e+00
1.2035578053e+00
1.2036818990e+00
1.2037864042e+00
1.2038733290e+00
1.2039447693e+00
1.2040027794e+00
1.2040493376e+00
1.2040862653e+00
1.2041152215e+00
1.2041376624e+00
1.2041548577e+00
1.2041678779e+00
1.2041776230e+00
1.2041848247e+00
1.2041900790e+00
1.2041938546e+00
1.2041965226e+00
1.2041983656e+00
1.2041996025e+00
1.2042003943e+00
1.2042008643e+00
1.2042010999e+00
1.2042011682e+00
1.2042011151e+00
1.2042009770e+00
1.2042007783e+00
1.2042005395e+00
1.2042002751e+00
1.2041999987e+00
1.2041997207e+00
1.2041994525e+00
1.2041992042e+00
1.2041989872e+00
1.2041988131e+00
1.2041986950e+00
1.2041986470e+00
1.2041986850e+00
1.2041988261e+00
1.2041990897e+00
1.2041994968e+00
1.2042000702e+00
1.2042008352e+00
1.2042018182e+00
1.2042030479e+00
1.2042045539e+00
1.2042063675e+00
1.2042085197e+00
1.2042110429e+00
1.2042139683e+00
1.2042173289e+00
1.2042211575e+00
1.2042254923e+00
1.2042303766e+00
1.2042358695e+00
1.2042420493e+00
1.2042490291e+00
1.2042569659e+00
1.2042660785e+00
1.2042766576e+00
1.2042890801e+00
1.2043038103e+00
1.2043213971e+00
1.2043424527e+00
1.2043676191e+00
1.2043975162e+00
1.2044326718e+00
1.2044734457e+00
1.2045199402e+00
1.2045719278e+00
1.2046287801e+00
1.2046894416e+00
1.2047524230e+00
1.2048158558e+00
1.2048775765e+00
1.2049352628e+00
1.2049865935e+00
1.2050294192e+00
1.2050619410e+00
1.2050827991e+00
1.2053295311e+00
1.1992839903e+00
1.1993794166e+00
1.1994772967e+00
1.1996196524e+00
1.1998023626e+00
1.2000202967e+00
1.2002674534e+00
1.2005373501e+00
1.2008231797e+00
1.2011182240e+00
1.2014159749e+00
1.2017104976e+00
1.2019964753e+00
1.2022694719e+00
1.2025258841e+00
1.2027630867e+00
1.2029793028e+00
1.2031736449e+00
1.2033459332e+00
1.2034966660e+00
1.2036268232e+00
1.2037378043e+00
1.2038312496e+00
1.2039089787e+00
1.2039728497e+00
1.2040247175e+00
1.2040663382e+00
1.2040993536e+00
1.2041252369e+00
1.2041452999e+00
1.2041606694e+00
1.2041723099e+00
1.2041810190e+00
1.2041874569e+00
1.2041921504e+00
1.2041955232e+00
1.2041979022e+00
1.2041995442e+00
1.2042006405e+00
1.2042013388e+00
1.2042017455e+00
1.2042019422e+00
1.2042019857e+00
1.2042019201e+00
1.2042017751e+00
1.2042015752e+00
1.2042013368e+00
1.2042010749e+00
1.2042008001e+00
1.2042005237e+00
1.2042002547e+00
1.2042000035e+00
1.2041997799e+00
1.2041995953e+00
1.2041994611e+00
1.2041993909e+00
1.2041993989e+00
1.2041995010e+00
1.2041997148e+00
1.2042000593e+00
1.2042005554e+00
1.2042012251e+00
1.2042020925e+00
1.2042031822e+00
1.2042045201e+00
1.2042061321e+00
1.2042080445e+00
1.2042102824e+00
1.2042128713e+00
1.2042158350e+00
1.2042192001e+00
1.2042229948e+00