# vtk DataFile Version 2.0
Blank
ASCII
DATASET STRUCTURED_GRID
DIMENSIONS 101 101 2
POINTS 20402 float
0.0000000000e+00 0.0000000000e+00 0.0000000000e+00
1.0000000000e-02 0.0000000000e+00 0.0000000000e+00
2.0000000000e-02 0.0000000000e+00 0.0000000000e+00
3.0000000000e-02 0.0000000000e+00 0.0000000000e+00
4.0000000000e-02 0.0000000000e+00 0.0000000000e+00
5.0000000000e-02 0.0000000000e+00 0.0000000000e+00
6.0000000000e-02 0.0000000000e+00 0.0000000000e+00
7.0000000000e-02 0.0000000000e+00 0.0000000000e+00
8.0000000000e-02 0.0000000000e+00 0.0000000000e+00
9.0000000000e-02 0.0000000000e+00 0.0000000000e+00
1.0000000000e-01 0.0000000000e+00 0.0000000000e+00
1.1000000000e-01 0.0000000000e+00 0.0000000000e+00
1.2000000000e-01 0.0000000000e+00 0.0000000000e+00
1.3000000000e-01 0.0000000000e+00 0.0000000000e+00
1.4000000000e-01 0.0000000000e+00 0.0000000000e+00
1.5000000000e-01 0.0000000000e+00 0.0000000000e+00
1.6000000000e-01 0.0000000000e+00 0.0000000000e+00
1.7000000000e-01 0.0000000000e+00 0.0000000000e+00
1.8000000000e-01 0.0000000000e+00 0.0000000000e+00
1.9000000000e-01 0.0000000000e+00 0.0000000000e+00
2.0000000000e-01 0.0000000000e+00 0.0000000000e+00
2.1000000000e-01 0.0000000000e+00 0.0000000000e+00
2.2000000000e-01 0.0000000000e+00 0.0000000000e+00
2.3000000000e-01 0.0000000000e+00 0.0000000000e+00
2.4000000000e-01 0.0000000000e+00 0.0000000000e+00
2.5000000000e-01 0.0000000000e+00 0.0000000000e+00
2.6000000000e-01 0.0000000000e+00 0.0000000000e+00
2.7000000000e-01 0.0000000000e+00 0.0000000000e+00
2.8000000000e-01 0.0000000000e+00 0.0000000000e+00
2.9000000000e-01 0.0000000000e+00 0.0000000000e+00
3.0000000000e-01 0.0000000000e+00 0.0000000000e+00
3.1000000000e-01 0.0000000000e+00 0.0000000000e+00
3.2000000000e-01 0.0000000000e+00 0.0000000000e+00
3.3000000000e-01 0.0000000000e+00 0.0000000000e+00
3.4000000000e-01 0.0000000000e+00 0.0000000000e+00
3.5000000000e-01 0.0000000000e+00 0.0000000000e+00
3.6000000000e-01 0.0000000000e+00 0.0000000000e+00
3.7000000000e-01 0.0000000000e+00 0.0000000000e+00
3.8000000000e-01 0.0000000000e+00 0.0000000000e+00
3.9000000000e-01 0.0000000000e+00 0.0000000000e+00
4.0000000000e-01 0.0000000000e+00 0.0000000000e+00
4.1000000000e-01 0.0000000000e+00 0.0000000000e+00
4.2000000000e-01 0.0000000000e+00 0.0000000000e+00
4.3000000000e-01 0.0000000000e+00 0.0000000000e+00
4.4000000000e-01 0.0000000000e+00 0.0000000000e+00
4.5000000000e-01 0.0000000000e+00 0.0000000000e+00
4.6000000000e-01 0.0000000000e+00 0.0000000000e+00
4.7000000000e-01 0.0000000000e+00 0.0000000000e+00
4.8000000000e-01 0.0000000000e+00 0.0000000000e+00
4.9000000000e-01 0.0000000000e+00 0.0000000000e+00
5.0000000000e-01 0.0000000000e+00 0.0000000000e+00
5.1000000000e-01 0.0000000000e+00 0.0000000000e+00
5.2000000000e-01 0.0000000000e+00 0.0000000000e+00
5.3000000000e-01 0.0000000000e+00 0.0000000000e+00
5.4000000000e-01 0.0000000000e+00 0.0000000000e+00
5.5000000000e-01 0.0000000000e+00 0.0000000000e+00
5.6000000000e-01 0.0000000000e+00 0.0000000000e+00
5.7000000000e-01 0.0000000000e+00 0.0000000000e+00
5.8000000000e-01 0.0000000000e+00 0.0000000000e+00
5.9000000000e-01 0.0000000000e+00 0.0000000000e+00
6.0000000000e-01 0.0000000000e+00 0.0000000000e+00
6.1000000000e-01 0.0000000000e+00 0.0000000000e+00
6.2000000000e-01 0.0000000000e+00 0.0000000000e+00
6.3000000000e-01 0.0000000000e+00 0.0000000000e+00
6.4000000000e-01 0.0000000000e+00 0.0000000000e+00
6.5000000000e-01 0.0000000000e+00 0.0000000000e+00
6.6000000000e-01 0.0000000000e+00 0.0000000000e+00
6.7000000000e-01 0.0000000000e+00 0.0000000000e+00
6.8000000000e-01 0.0000000000e+00 0.0000000000e+00
6.9000000000e-01 0.0000000000e+00 0.0000000000e+00
7.0000000000e-01 0.0000000000e+00 0.0000000000e+00
7.1000000000e-01 0.0000000000e+00 0.0000000000e+00
7.2000000000e-01 0.0000000000e+00 0.0000000000e+00
7.3000000000e-01 0.0000000000e+00 0.0000000000e+00
7.4000000000e-01 0.0000000000e+00 0.0000000000e+00
7.5000000000e-01 0.0000000000e+00 0.0000000000e+00
7.6000000000e-01 0.0000000000e+00 0.0000000000e+00
7.7000000000e-01 0.0000000000e+00 0.0000000000e+00
7.8000000000e-01 0.0000000000e+00 0.0000000000e+00
7.9000000000e-01 0.0000000000e+00 0.0000000000e+00
8.0000000000e-01 0.0000000000e+00 0.0000000000e+00
8.1000000000e-01 0.0000000000e+00 0.0000000000e+00
8.2000000000e-01 0.0000000000e+00 0.0000000000e+00
8.3000000000e-01 0.0000000000e+00 0.0000000000e+00
8.4000000000e-01 0.0000000000e+00 0.0000000000e+00
8.5000000000e-01 0.0000000000e+00 0.0000000000e+00
8.6000000000e-01 0.0000000000e+00 0.0000000000e+00
8.7000000000e-01 0.0000000000e+00 0.0000000000e+00
8.8000000000e-01 0.0000000000e+00 0.0000000000e+00
8.9000000000e-01 0.0000000000e+00 0.0000000000e+00
9.0000000000e-01 0.0000000000e+00 0.0000000000e+00
9.1000000000e-01 0.0000000000e+00 0.0000000000e+00
9.2000000000e-01 0.0000000000e+00 0.0000000000e+00
9.3000000000e-01 0.0000000000e+00 0.0000000000e+00
9.4000000000e-01 0.0000000000e+00 0.0000000000e+00
9.5000000000e-01 0.0000000000e+00 0.0000000000e+00
9.6000000000e-01 0.0000000000e+00 0.0000000000e+00
9.7000000000e-01 0.0000000000e+00 0.0000000000e+00
9.8000000000e-01 0.0000000000e+00 0.0000000000e+00
9.9000000000e-01 0.0000000000e+00 0.0000000000e+00
1.0000000000e+00 0.0000000000e+00 0.0000000000e+00
0.0000000000e+00 1.0000000000e-02 0.0000000000e+00
1.0000000000e-02 1.0000000000e-02 0.0000000000e+00
2.0000000000e-02 1.0000000000e-02 0.0000000000e+00
3.0000000000e-02 1.0000000000e-02 0.0000000000e+00
4.0000000000e-02 1.0000000000e-02 0.0000000000e+00
5.0000000000e-02 1.0000000000e-02 0.0000000000e+00
6.0000000000e-02 1.0000000000e-02 0.0000000000e+00
7.0000000000e-02 1.0000000000e-02 0.0000000000e+00
8.0000000000e-02 1.0000000000e-02 0.0000000000e+00
9.0000000000e-02 1.0000000000e-02 0.0000000000e+00
1.0000000000e-01 1.0000000000e-02 0.0000000000e+00
1.1000000000e-01 1.0000000000e-02 0.0000000000e+00
1.2000000000e-01 1.0000000000e-02 0.0000000000e+00
1.3000000000e-01 1.0000000000e-02 0.0000000000e+00
1.4000000000e-01 1.0000000000e-02 0.0000000000e+00
1.5000000000e-01 1.0000000000e-02 0.0000000000e+00
1.6000000000e-01 1.0000000000e-02 0.0000000000e+00
1.7000000000e-01 1.0000000000e-02 0.0000000000e+00
1.8000000000e-01 1.0000000000e-02 0.0000000000e+00
1.9000000000e-01 1.0000000000e-02 0.0000000000e+00
2.0000000000e-01 1.0000000000e-02 0.0000000000e+00
2.1000000000e-01 1.0000000000e-02 0.0000000000e+00
2.2000000000e-01 1.0000000000e-02 0.0000000000e+00
2.3000000000e-01 1.0000000000e-02 0.0000000000e+00
2.4000000000e-01 1.0000000000e-02 0.0000000000e+00
2.5000000000e-01 1.0000000000e-02 0.0000000000e+00
2.6000000000e-01 1.0000000000e-02 0.0000000000e+00
2.7000000000e-01 1.0000000000e-02 0.0000000000e+00
2.8000000000e-01 1.0000000000e-02 0.0000000000e+00
2.9000000000e-01 1.0000000000e-02 0.0000000000e+00
3.0000000000e-01 1.0000000000e-02 0.0000000000e+00
3.1000000000e-01 1.0000000000e-02 0.0000000000e+00
3.2000000000e-01 1.0000000000e-02 0.0000000000e+00
3.3000000000e-01 1.0000000000e-02 0.0000000000e+00
3.4000000000e-01 1.0000000000e-02 0.0000000000e+00
3.5000000000e-01 1.0000000000e-02 0.0000000000e+00
3.6000000000e-01 1.0000000000e-02 0.0000000000e+00
3.7000000000e-01 1.0000000000e-02 0.0000000000e+00
3.8000000000e-01 1.0000000000e-02 0.0000000000e+00
3.9000000000e-01 1.0000000000e-02 0.0000000000e+00
4.0000000000e-01 1.0000000000e-02 0.0000000000e+00
4.1000000000e-01 1.0000000000e-02 0.0000000000e+00
4.2000000000e-01 1.0000000000e-02 0.0000000000e+00
4.3000000000e-01 1.0000000000e-02 0.0000000000e+00
4.4000000000e-01 1.0000000000e-02 0.0000000000e+00
4.5000000000e-01 1.0000000000e-02 0.0000000000e+00
4.6000000000e-01 1.0000000000e-02 0.0000000000e+00
4.7000000000e-01 1.0000000000e-02 0.0000000000e+00
4.8000000000e-01 1.0000000000e-02 0.0000000000e+00
4.9000000000e-01 1.0000000000e-02 0.0000000000e+00
5.0000000000e-01 1.0000000000e-02 0.0000000000e+00
5.1000000000e-01 1.0000000000e-02 0.0000000000e+00
5.2000000000e-01 1.0000000000e-02 0.0000000000e+00
5.3000000000e-01 1.0000000000e-02 0.0000000000e+00
5.4000000000e-01 1.0000000000e-02 0.0000000000e+00
5.5000000000e-01 1.0000000000e-02 0.0000000000e+00
5.6000000000e-01 1.0000000000e-02 0.0000000000e+00
5.7000000000e-01 1.0000000000e-02 0.0000000000e+00
5.8000000000e-01 1.0000000000e-02 0.0000000000e+00
5.9000000000e-01 1.0000000000e-02 0.0000000000e+00
6.0000000000e-01 1.0000000000e-02 0.0000000000e+00
6.1000000000e-01 1.0000000000e-02 0.0000000000e+00
6.2000000000e-01 1.0000000000e-02 0.0000000000e+00
6.3000000000e-01 1.0000000000e-02 0.0000000000e+00
6.4000000000e-01 1.0000000000e-02 0.0000000000e+00
6.5000000000e-01 1.0000000000e-02 0.0000000000e+00
6.6000000000e-01 1.0000000000e-02 0.0000000000e+00
6.7000000000e-01 1.0000000000e-02 0.0000000000e+00
6.8000000000e-01 1.0000000000e-02 0.0000000000e+00
6.9000000000e-01 1.0000000000e-02 0.0000000000e+00
7.0000000000e-01 1.0000000000e-02 0.0000000000e+00
7.1000000000e-01 1.0000000000e-02 0.0000000000e+00
7.2000000000e-01 1.0000000000e-02 0.0000000000e+00
7.3000000000e-01 1.0000000000e-02 0.0000000000e+00
7.4000000000e-01 1.0000000000e-02 0.0000000000e+00
7.5000000000e-01 1.0000000000e-02 0.0000000000e+00
7.6000000000e-01 1.0000000000e-02 0.0000000000e+00
7.7000000000e-01 1.0000000000e-02 0.0000000000e+00
7.8000000000e-01 1.0000000000e-02 0.0000000000e+00
7.9000000000e-01 1.0000000000e-02 0.0000000000e+00
8.0000000000e-01 1.0000000000e-02 0.0000000000e+00
8.1000000000e-01 1.0000000000e-02 0.0000000000e+00
8.2000000000e-01 1.0000000000e-02 0.0000000000e+00
8.3000000000e-01 1.0000000000e-02 0.0000000000e+00
8.4000000000e-01 1.0000000000e-02 0.0000000000e+00
8.5000000000e-01 1.0000000000e-02 0.0000000000e+00
8.6000000000e-01 1.0000000000e-02 0.0000000000e+00
8.7000000000e-01 1.0000000000e-02 0.0000000000e+00
8.8000000000e-01 1.0000000000e-02 0.0000000000e+00
8.9000000000e-01 1.0000000000e-02 0.0000000000e+00
9.0000000000e-01 1.0000000000e-02 0.0000000000e+00
9.1000000000e-01 1.0000000000e-02 0.0000000000e+00
9.2000000000e-01 1.0000000000e-02 0.0000000000e+00
[...]
CELL_DATA 10000

SCALARS massDensity float
LOOKUP_TABLE default
1.1748075202e+00
1.1759129270e+00
1.1774182596e+00
1.1795515524e+00
1.1821381093e+00
1.1849846509e+00
1.1879002198e+00
1.1907172753e+00
1.1933043557e+00
1.1955748076e+00
1.1974859207e+00
1.1990346313e+00
1.2002474851e+00
1.2011708505e+00
1.2018603099e+00
1.2023730761e+00
1.2027620681e+00
1.2030731186e+00
1.2033436947e+00
1.2036032250e+00
1.2038738594e+00
1.2041712408e+00
1.2045048947e+00
1.2048777870e+00
1.2052856240e+00
1.2057156405e+00
1.2061464217e+00
1.2065484990e+00
1.2068876413e+00
1.2071294055e+00
1.2072461342e+00
1.2072227188e+00
1.2070618334e+00
1.2067839040e+00
1.2064245668e+00
1.2060266606e+00
1.2056327127e+00
1.2052765588e+00
1.2049797312e+00
1.2047500624e+00
1.2045846020e+00
1.2044732640e+00
1.2044032355e+00
1.2043620069e+00
1.2043392910e+00
1.2043275743e+00
1.2043219206e+00
1.2043193698e+00
1.2043182947e+00
1.2043178720e+00
1.2043177171e+00
1.2043176643e+00
1.2043176476e+00
1.2043176428e+00
1.2043176414e+00
1.2043176411e+00
1.2043176410e+00
1.2043176410e+00
1.2043176410e+00
1.2043176410e+00
1.2043176410e+00
1.2043176410e+00
1.2043176410e+00
1.2043176410e+00
1.2043176410e+00
1.2043176410e+00
1.2043176410e+00
1.2043176410e+00
1.2043176410e+00
1.2043176410e+00
1.2043176410e+00
1.2043176410e+00
1.2043176410e+00
1.2043176410e+00
1.2043176410e+00
1.2043176410e+00
1.2043176410e+00
1.2043176410e+00
1.2043176410e+00
1.2043176410e+00
1.2043176410e+00
1.2043176410e+00
1.2043176410e+00
1.2043176410e+00
1.2043176410e+00
1.2043176410e+00
1.2043176410e+00
1.2043176410e+00
1.2043176410e+00
1.2043176410e+00
1.2043176410e+00
1.2043176410e+00
1.2043176410e+00
1.2043176410e+00
1.2043176410e+00
1.2043176410e+00
1.2043176410e+00
1.2043176410e+00
1.2043176410e+00
1.2043176410e+00
1.1759129270e+00
1.1770575751e+00
1.1785516130e+00
1.1806437392e+00
1.1831695617e+00
1.1859424966e+00
1.1887791570e+00
1.1915160646e+00
1.1940265935e+00
1.1962257216e+00
1.1980727198e+00
1.1995639023e+00
1.2007253093e+00
1.2016010189e+00
1.2022444390e+00
1.2027096143e+00
1.2030464951e+00
1.2032975835e+00
1.2034974044e+00
1.2036728115e+00
1.2038443660e+00
1.2040276706e+00
1.2042343398e+00
1.2044723469e+00
1.2047452637e+00
1.2050510768e+00
1.2053803500e+00
1.2057154581e+00
1.2060307873e+00
1.2062958629e+00
1.2064799609e+00
1.2065591706e+00
1.2065218288e+00
1.2063731748e+00
1.2061340349e+00
1.2058376314e+00
1.2055209793e+00
1.2052184522e+00
1.2049546741e+00
1.2047430488e+00
1.2045856383e+00
1.2044768457e+00
1.2044067235e+00
1.2043645630e+00
1.2043408764e+00
1.2043284480e+00
1.2043223555e+00
1.2043195672e+00
1.2043183770e+00
1.2043179035e+00
1.2043177282e+00
1.2043176679e+00
1.2043176487e+00
1.2043176430e+00
1.2043176415e+00
1.2043176411e+00
1.2043176410e+00
1.2043176410e+00
1.2043176410e+00
1.2043176410e+00
1.2043176410e+00
1.2043176410e+00
1.2043176410e+00
1.2043176410e+00
1.2043176410e+00
1.2043176410e+00
1.2043176410e+00
1.2043176410e+00
1.2043176410e+00
1.2043176410e+00
1.2043176410e+00
1.2043176410e+00
1.2043176410e+00
1.2043176410e+00
1.2043176410e+00
1.2043176410e+00
1.2043176410e+00
1.2043176410e+00
1.2043176410e+00
1.2043176410e+00
1.2043176410e+00
1.2043176410e+00
1.2043176410e+00
1.2043176410e+00
1.2043176410e+00
1.2043176410e+00
1.2043176410e+00
1.2043176410e+00
1.2043176410e+00
1.2043176410e+00
1.2043176410e+00
1.2043176410e+00
1.2043176410e+00
1.2043176410e+00
1.2043176410e+00
1.2043176410e+00
1.2043176410e+00
1.2043176410e+00
1.2043176410e+00
1.2043176410e+00
1.1774182596e+00
1.1785516130e+00
1.1799760782e+00
1.1819607878e+00
1.1843505233e+00
1.1869717140e+00
1.1896502120e+00
1.1922336957e+00
1.1946015210e+00
1.1966750387e+00
1.1984150013e+00
1.1998190748e+00
1.2009112312e+00
1.2017336414e+00
1.2023360868e+00
1.2027695718e+00
1.2030805023e+00
1.2033086045e+00
1.2034858083e+00
1.2036372236e+00
1.2037823986e+00
1.2039370259e+00
1.2041141189e+00
1.2043243377e+00
1.2045752430e+00
1.2048692684e+00
1.2052012515e+00
1.2055561012e+00
1.2059083223e+00
1.2062240253e+00
1.2064664244e+00
1.2066031643e+00
1.2066148145e+00
1.2064998467e+00
1.2062768034e+00
1.2059790146e+00
1.2056480357e+00
1.2053229328e+00
1.2050343214e+00
1.2047992818e+00
1.2046227157e+00
1.2044995877e+00
1.2044197792e+00
1.2043715446e+00
1.2043443678e+00
1.2043300741e+00
1.2043230613e+00
1.2043198523e+00
1.2043184837e+00
1.2043179405e+00
1.2043177400e+00
1.2043176714e+00
1.2043176496e+00
1.2043176433e+00
1.2043176416e+00
1.2043176411e+00
1.2043176410e+00
1.2043176410e+00
1.2043176410e+00
1.2043176410e+00
1.2043176410e+00
1.2043176410e+00
1.2043176410e+00
1.2043176410e+00
1.2043176410e+00
1.2043176410e+00
1.2043176410e+00
1.2043176410e+00
1.2043176410e+00
1.2043176410e+00
1.2043176410e+00
1.2043176410e+00
1.2043176410e+00
1.2043176410e+00
1.2043176410e+00
1.2043176410e+00
1.2043176410e+00
1.2043176410e+00
1.2043176410e+00
1.2043176410e+00
1.2043176410e+00
1.2043176410e+00
1.2043176410e+00
1.2043176410e+00
1.2043176410e+00
1.2043176410e+00
1.2043176410e+00
1.2043176410e+00
1.2043176410e+00
1.2043176410e+00
1.2043176410e+00
1.2043176410e+00
1.2043176410e+00
1.2043176410e+00
1.2043176410e+00
1.2043176410e+00
1.2043176410e+00
1.2043176410e+00
1.2043176410e+00
1.2043176410e+00
1.1795515524e+00
1.1806437392e+00
1.1819607878e+00
1.1837876950e+00
1.1859841556e+00
1.1883894626e+00
1.1908462917e+00
1.1932134382e+00
1.1953824307e+00
1.1972799896e+00
1.1988718055e+00
1.2001549276e+00
1.2011523660e+00
1.2019021051e+00
1.2024501554e+00
1.2028425650e+00
1.2031217378e+00
1.2033233956e+00
1.2034765580e+00
1.2036040261e+00
1.2037242131e+00
1.2038527562e+00
1.2040039370e+00
1.2041909754e+00
1.2044249532e+00
1.2047122548e+00
1.2050510660e+00
1.2054280412e+00
1.2058168738e+00
1.2061800133e+00
1.2064744165e+00
1.2066604955e+00
1.2067115484e+00
1.2066217134e+00
1.2064072727e+00
1.2061039470e+00
1.2057564956e+00
1.2054098230e+00
1.2050984426e+00
1.2048433834e+00
1.2046507922e+00
1.2045162960e+00
1.2044289882e+00
1.2043762827e+00
1.2043466216e+00
1.2043310690e+00
1.2043234657e+00
1.2043200028e+00
1.2043185349e+00
1.2043179560e+00
1.2043177442e+00
1.2043176723e+00
1.2043176498e+00
1.2043176433e+00
1.2043176415e+00
1.2043176411e+00
1.2043176410e+00
1.2043176410e+00
1.2043176410e+00
1.2043176410e+00
1.2043176410e+00
1.2043176410e+00
1.2043176410e+00
1.2043176410e+00
1.2043176410e+00
1.2043176410e+00
1.2043176410e+00
1.2043176410e+00
1.2043176410e+00
1.2043176410e+00
1.2043176410e+00
1.2043176410e+00
1.2043176410e+00
1.2043176410e+00
1.2043176410e+00
1.2043176410e+00
1.2043176410e+00
1.2043176410e+00
1.2043176410e+00
1.2043176410e+00
1.2043176410e+00
1.2043176410e+00
1.2043176410e+00
1.2043176410e+00
1.2043176410e+00
1.2043176410e+00
1.2043176410e+00
1.2043176410e+00
1.2043176410e+00
1.2043176410e+00
1.2043176410e+00
1.2043176410e+00
1.2043176410e+00
1.2043176410e+00
1.2043176410e+00
1.2043176410e+00
1.2043176410e+00
1.2043176410e+00
1.2043176410e+00
1.2043176410e+00
1.1821381093e+00
1.1831695617e+00
1.1843505233e+00
1.1859841556e+00
1.1879435363e+00
1.1900877848e+00
1.1922748941e+00
1.1943815598e+00
1.1963096539e+00
1.1979960393e+00
1.1994090951e+00
1.2005476783e+00
1.2014314859e+00
1.2020950935e+00
1.2025787360e+00
1.2029235417e+00
1.2031665361e+00
1.2033393449e+00
1.2034673658e+00
1.2035711220e+00
1.2036676955e+00
1.2037727783e+00
1.2039019076e+00
1.2040707614e+00
1.2042936079e+00
1.2045801457e+00
1.2049309463e+00
1.2053334023e+00
1.2057593315e+00
1.2061669794e+00
1.2065071446e+00
1.2067334997e+00
1.2068139983e+00
1.2067391440e+00
1.2065257321e+00
1.2062112570e+00
1.2058456965e+00
1.2054776547e+00
1.2051463269e+00
1.2048743999e+00
1.2046694794e+00
1.2045265795e+00
1.2044342192e+00
1.2043786790e+00
1.2043476123e+00
1.2043314223e+00
1.2043235679e+00
1.2043200213e+00
1.2043185318e+00
1.2043179512e+00
1.2043177412e+00
1.2043176710e+00
1.2043176493e+00
1.2043176431e+00
1.2043176415e+00
1.2043176411e+00
1.2043176410e+00
1.2043176410e+00
1.2043176410e+00
1.2043176410e+00
1.2043176410e+00
1.2043176410e+00
1.2043176410e+00
1.2043176410e+00
1.2043176410e+00
1.2043176410e+00
1.2043176410e+00
1.2043176410e+00
1.2043176410e+00
1.2043176410e+00
1.2043176410e+00
1.2043176410e+00
1.2043176410e+00
1.2043176410e+00
1.2043176410e+00
1.2043176410e+00
1.2043176410e+00
1.2043176410e+00
1.2043176410e+00
1.2043176410e+00
1.2043176410e+00
1.2043176410e+00
1.2043176410e+00
1.2043176410e+00
1.2043176410e+00
1.2043176410e+00
1.2043176410e+00
1.2043176410e+00
1.2043176410e+00
1.2043176410e+00
1.2043176410e+00
1.2043176410e+00
1.2043176410e+00
1.2043176410e+00
1.2043176410e+00
1.2043176410e+00
1.2043176410e+00
1.2043176410e+00
1.2043176410e+00
1.2043176410e+00
1.1849846509e+00
1.1859424966e+00
1.1869717140e+00
1.1883894626e+00
1.1900877848e+00
1.1919427988e+00
1.1938341134e+00
1.1956532955e+00
1.1973178474e+00
1.1987718448e+00
1.1999897953e+00
1.2009697718e+00
1.2017299269e+00
1.2022993755e+00
1.2027133166e+00
1.2030065489e+00
1.2032110291e+00
1.2033535064e+00
1.2034560047e+00
1.2035365185e+00
1.2036111070e+00
1.2036955659e+00
1.2038068962e+00
1.2039631080e+00
1.2041813840e+00
1.2044738894e+00
1.2048427035e+00
1.2052744716e+00
1.2057383212e+00
1.2061873517e+00
1.2065664354e+00
1.2068234593e+00
1.2069221204e+00
1.2068519927e+00
1.2066306541e+00
1.2063001306e+00
1.2059139058e+00
1.2055257970e+00
1.2051769220e+00
1.2048921317e+00
1.2046784255e+00
1.2045304764e+00
1.2044354505e+00
1.2043788043e+00
1.2043473812e+00
1.2043311717e+00
1.2043233915e+00
1.2043199199e+00
1.2043184817e+00
1.2043179288e+00
1.2043177323e+00
1.2043176677e+00
1.2043176482e+00
1.2043176428e+00
1.2043176414e+00
1.2043176411e+00
1.2043176410e+00
1.2043176410e+00
1.2043176410e+00
1.2043176410e+00
1.2043176410e+00
1.2043176410e+00
1.2043176410e+00
1.2043176410e+00
1.2043176410e+00
1.2043176410e+00
1.2043176410e+00
1.2043176410e+00
1.2043176410e+00
1.2043176410e+00
1.2043176410e+00
1.2043176410e+00
1.2043176410e+00
1.2043176410e+00
1.2043176410e+00
1.2043176410e+00
1.2043176410e+00
1.2043176410e+00
1.2043176410e+00
1.2043176410e+00
1.2043176410e+00
1.2043176410e+00
1.2043176410e+00
1.2043176410e+00
1.2043176410e+00
1.2043176410e+00
1.2043176410e+00
1.2043176410e+00
1.2043176410e+00
1.2043176410e+00
1.2043176410e+00
1.2043176410e+00
1.2043176410e+00
1.2043176410e+00
1.2043176410e+00
1.2043176410e+00
1.2043176410e+00
1.2043176410e+00
1.2043176410e+00
1.2043176410e+00
1.1879002198e+00
1.1887791570e+00
1.1896502120e+00
1.1908462917e+00
1.1922748941e+00
1.1938341134e+00
1.1954209920e+00
1.1969468330e+00
1.1983408570e+00
1.1995581605e+00
1.2005762541e+00
1.2013949388e+00
1.2020286128e+00
1.2025024068e+00
1.2028450835e+00
1.2030859604e+00
1.2032511641e+00
1.2033631402e+00
1.2034402784e+00
1.2034985664e+00
1.2035531232e+00
1.2036203120e+00
1.2037186512e+00
1.2038685697e+00
1.2040895649e+00
1.2043956558e+00
1.2047888671e+00
1.2052541626e+00
1.2057562786e+00
1.2062430391e+00
1.2066532116e+00
1.2069300586e+00
1.2070351272e+00
1.2069581525e+00
1.2067206420e+00
1.2063682526e+00
1.2059602794e+00
1.2055529097e+00
1.2051901769e+00
1.2048962481e+00
1.2046779375e+00
1.2045281065e+00
1.2044329511e+00
1.2043768122e+00
1.2043460587e+00
1.2043303927e+00
1.2043229791e+00
1.2043197219e+00
1.2043183944e+00
1.2043178938e+00
1.2043177193e+00
1.2043176634e+00
1.2043176468e+00
1.2043176424e+00
1.2043176413e+00
1.2043176411e+00
1.2043176410e+00
1.2043176410e+00
1.2043176410e+00
1.2043176410e+00
1.2043176410e+00
1.2043176410e+00
1.2043176410e+00
1.2043176410e+00
1.2043176410e+00
1.2043176410e+00
1.2043176410e+00
1.2043176410e+00
1.2043176410e+00
1.2043176410e+00
1.2043176410e+00
1.2043176410e+00
1.2043176410e+00
1.2043176410e+00
1.2043176410e+00
1.2043176410e+00
1.2043176410e+00
1.2043176410e+00
1.2043176410e+00
1.2043176410e+00
1.2043176410e+00
1.2043176410e+00
1.2043176410e+00
1.2043176410e+00
1.2043176410e+00
1.2043176410e+00
1.2043176410e+00
1.2043176410e+00
1.2043176410e+00
1.2043176410e+00
1.2043176410e+00
1.2043176410e+00
1.2043176410e+00
1.2043176410e+00
1.2043176410e+00
1.2043176410e+00
1.2043176410e+00
1.2043176410e+00
1.2043176410e+00
1.2043176410e+00
1.1907172753e+00
1.1915160646e+00
1.1922336957e+00
1.1932134382e+00
1.1943815598e+00
1.1956532955e+00
1.1969468330e+00
1.1981883207e+00
1.1993221138e+00
1.2003104198e+00
1.2011364970e+00
1.2017992827e+00
1.2023114328e+00
1.2026926271e+00
1.2029665888e+00
1.2031564493e+00
1.2032834854e+00
1.2033656266e+00
1.2034184126e+00
1.2034559468e+00
1.2034931005e+00
1.2035469957e+00
1.2036380716e+00
1.2037888508e+00
1.2040208603e+00
1.2043485644e+00
1.2047730366e+00
1.2052754397e+00
1.2058156519e+00
1.2063350033e+00
1.2067671380e+00
1.2070518491e+00
1.2071502206e+00
1.2070552276e+00
1.2067924329e+00
1.2064140988e+00
1.2059828552e+00
1.2055588777e+00
1.2051856572e+00
1.2048873665e+00
1.2046683179e+00
1.2045200597e+00
1.2044270672e+00
1.2043730123e+00
1.2043438227e+00
1.2043291942e+00
1.2043223894e+00
1.2043194545e+00
1.2043182833e+00
1.2043178511e+00
1.2043177044e+00
1.2043176585e+00
1.2043176454e+00
1.2043176420e+00
1.2043176412e+00
1.2043176410e+00
1.2043176410e+00
1.2043176410e+00
1.2043176410e+00
1.2043176410e+00
1.2043176410e+00
1.2043176410e+00
1.2043176410e+00
1.2043176410e+00
1.2043176410e+00
1.2043176410e+00
1.2043176410e+00
1.2043176410e+00
1.2043176410e+00
1.2043176410e+00
1.2043176410e+00
1.2043176410e+00
1.2043176410e+00
1.2043176410e+00
1.2043176410e+00
1.2043176410e+00
1.2043176410e+00
1.2043176410e+00
1.2043176410e+00
1.2043176410e+00
1.2043176410e+00
1.2043176410e+00
1.2043176410e+00
1.2043176410e+00
1.2043176410e+00
1.2043176410e+00
1.2043176410e+00
1.2043176410e+00
1.2043176410e+00
1.2043176410e+00
1.2043176410e+00
1.2043176410e+00
1.2043176410e+00
1.2043176410e+00
1.2043176410e+00
1.2043176410e+00
1.2043176410e+00
1.2043176410e+00
1.2043176410e+00
1.2043176410e+00
1.1933043557e+00
1.1940265935e+00
1.1946015210e+00
1.1953824307e+00
1.1963096539e+00
1.1973178474e+00
1.1983408570e+00
1.1993221138e+00
1.2002163790e+00
1.2009953527e+00
1.2016448501e+00
1.2021650962e+00
1.2025652968e+00
1.2028614661e+00
1.2030715869e+00
1.2032139882e+00
1.2033049590e+00
1.2033589978e+00
1.2033889793e+00
1.2034080436e+00
1.2034311140e+00
1.2034767466e+00
1.2035672251e+00
1.2037272136e+00
1.2039791305e+00
1.2043371452e+00
1.2047991362e+00
1.2053417519e+00
1.2059179907e+00
1.2064633386e+00
1.2069063907e+00
1.2071854692e+00
1.2072637832e+00
1.2071387277e+00
1.2068432934e+00
1.2064346551e+00
1.2059810544e+00
1.2055429031e+00
1.2051642161e+00
1.2048659524e+00
1.2046505928e+00
1.2045069613e+00
1.2044184076e+00
1.2043677597e+00
1.2043409101e+00
1.2043277050e+00
1.2043216872e+00
1.2043191499e+00
1.2043181610e+00
1.2043178062e+00
1.2043176891e+00
1.2043176538e+00
1.2043176441e+00
1.2043176417e+00
1.2043176411e+00
1.2043176410e+00
1.2043176410e+00
1.2043176410e+00
1.2043176410e+00
1.2043176410e+00
1.2043176410e+00
1.2043176410e+00
1.2043176410e+00
1.2043176410e+00
1.2043176410e+00
1.2043176410e+00
1.2043176410e+00
1.2043176410e+00
1.2043176410e+00
1.2043176410e+00
1.2043176410e+00
1.2043176410e+00
1.2043176410e+00
1.2043176410e+00
1.2043176410e+00
1.2043176410e+00
1.2043176410e+00
1.2043176410e+00
1.2043176410e+00
1.2043176410e+00
1.2043176410e+00
1.2043176410e+00
1.2043176410e+00
1.2043176410e+00
1.2043176410e+00
1.2043176410e+00
1.2043176410e+00
1.2043176410e+00
1.2043176410e+00
1.2043176410e+00
1.2043176410e+00
1.2043176410e+00
1.2043176410e+00
1.2043176410e+00
1.2043176410e+00
1.2043176410e+00
1.2043176410e+00
1.2043176410e+00
1.2043176410e+00
1.2043176410e+00
1.1955748076e+00
1.1962257216e+00
1.1966750387e+00
1.1972799896e+00
1.1979960393e+00
1.1987718448e+00
1.1995581605e+00
1.2003104198e+00
1.2009953527e+00
1.2015902909e+00
1.2020854386e+00
1.2024801697e+00
1.2027821130e+00
1.2030027859e+00
1.2031560962e+00
1.2032554710e+00
1.2033135839e+00
1.2033417596e+00
1.2033513576e+00
1.2033549482e+00
1.2033684200e+00
1.2034118922e+00
1.2035098497e+00
1.2036882620e+00
1.2039699249e+00
1.2043665509e+00
1.2048719739e+00
1.2054557781e+00
1.2060643408e+00
1.2066263507e+00
1.2070673920e+00
1.2073261255e+00
1.2073699907e+00
1.2072042454e+00
1.2068687114e+00
1.2064283321e+00
1.2059533247e+00
1.2055058423e+00
1.2051263669e+00
1.2048335350e+00
1.2046257390e+00
1.2044898647e+00
1.2044076009e+00
1.2043615110e+00
1.2043375721e+00
1.2043260612e+00
1.2043209409e+00
1.2043188366e+00
1.2043180405e+00
1.2043177634e+00
1.2043176753e+00
1.2043176497e+00
1.2043176430e+00
1.2043176414e+00
1.2043176411e+00
1.2043176410e+00
1.2043176410e+00
1.2043176410e+00
1.2043176410e+00
1.2043176410e+00
1.2043176410e+00
1.2043176410e+00
1.2043176410e+00
1.2043176410e+00
1.2043176410e+00
1.2043176410e+00
1.2043176410e+00
1.2043176410e+00
1.2043176410e+00
1.2043176410e+00
1.2043176410e+00
1.2043176410e+00
1.2043176410e+00
1.2043176410e+00
1.2043176410e+00
1.2043176410e+00
1.2043176410e+00
1.2043176410e+00
1.2043176410e+00
1.2043176410e+00
1.2043176410e+00
1.2043176410e+00
1.2043176410e+00
1.2043176410e+00
1.2043176410e+00
1.2043176410e+00
1.2043176410e+00
1.2043176410e+00
1.2043176410e+00
1.2043176410e+00
1.2043176410e+00
1.2043176410e+00
1.2043176410e+00
1.2043176410e+00
1.2043176410e+00
1.2043176410e+00
1.2043176410e+00
1.2043176410e+00
1.2043176410e+00
1.2043176410e+00
1.1974859207e+00
1.1980727198e+00
1.1984150013e+00
1.1988718055e+00
1.1994090951e+00
1.1999897953e+00
1.2005762541e+00
1.2011364970e+00
1.2016448501e+00
1.2020854386e+00
1.2024501879e+00
1.2027392345e+00
1.2029575089e+00
1.2031137582e+00
1.2032176562e+00
1.2032792987e+00
1.2033080456e+00
1.2033134015e+00
1.2033056831e+00
1.2032980112e+00
1.2033075329e+00
1.2033565591e+00
1.2034712249e+00
1.2036785479e+00
1.2039997382e+00
1.2044431672e+00
1.2049957896e+00
1.2056199994e+00
1.2062537305e+00
1.2068207315e+00
1.2072444721e+00
1.2074667567e+00
1.2074624668e+00
1.2072453946e+00
1.2068654733e+00
1.2063923368e+00
1.2059001225e+00
1.2054480248e+00
1.2050741193e+00
1.2047914760e+00
1.2045954066e+00
1.2044697834e+00
1.2043954481e+00
1.2043547132e+00
1.2043340698e+00
1.2043243953e+00
1.2043202091e+00
1.2043185415e+00
1.2043179307e+00
1.2043177262e+00
1.2043176637e+00
1.2043176465e+00
1.2043176422e+00
1.2043176412e+00
1.2043176410e+00
1.2043176410e+00
1.2043176410e+00
1.2043176410e+00
1.2043176410e+00
1.2043176410e+00
1.2043176410e+00
1.2043176410e+00
1.2043176410e+00
1.2043176410e+00
1.2043176410e+00
1.2043176410e+00
1.2043176410e+00
1.2043176410e+00
1.2043176410e+00
1.2043176410e+00
1.2043176410e+00
1.2043176410e+00
1.2043176410e+00
1.2043176410e+00
1.2043176410e+00
1.2043176410e+00
1.2043176410e+00
1.2043176410e+00
1.2043176410e+00
1.2043176410e+00
1.2043176410e+00
1.2043176410e+00
1.2043176410e+00
1.2043176410e+00
1.2043176410e+00
1.2043176410e+00
1.2043176410e+00
1.2043176410e+00
1.2043176410e+00
1.2043176410e+00
1.2043176410e+00
1.2043176410e+00
1.2043176410e+00
1.2043176410e+00
1.2043176410e+00
1.2043176410e+00
1.2043176410e+00
1.2043176410e+00
1.2043176410e+00
1.2043176410e+00
1.1990346313e+00
1.1995639023e+00
1.1998190748e+00
1.2001549276e+00
1.2005476783e+00
1.2009697718e+00
1.2013949388e+00
1.2017992827e+00
1.2021650962e+00
1.2024801697e+00
1.2027392345e+00
1.2029416706e+00
1.2030912433e+00
1.2031935856e+00
1.2032557519e+00
1.2032847838e+00
1.2032882182e+00
1.2032742601e+00
1.2032534711e+00
1.2032399395e+00
1.2032529287e+00
1.2033166375e+00
1.2034588507e+00
1.2037059201e+00
1.2040766319e+00
1.2045730804e+00
1.2051748778e+00
1.2058347292e+00
1.2064836437e+00
1.2070404042e+00
1.2074296007e+00
1.2075989384e+00
1.2075327033e+00
1.2072567506e+00
1.2068290194e+00
1.2063261767e+00
1.2058212480e+00
1.2053717974e+00
1.2050091929e+00
1.2047421585e+00
1.2045611113e+00
1.2044480198e+00
1.2043826887e+00
1.2043478309e+00
1.2043306404e+00
1.2043228190e+00
1.2043195431e+00
1.2043182821e+00
1.2043178386e+00
1.2043176962e+00
1.2043176549e+00
1.2043176441e+00
1.2043176416e+00
1.2043176411e+00
1.2043176410e+00
1.2043176410e+00
1.2043176410e+00
1.2043176410e+00
1.2043176410e+00
1.2043176410e+00
1.2043176410e+00
1.2043176410e+00
1.2043176410e+00
1.2043176410e+00
1.2043176410e+00
1.2043176410e+00
1.2043176410e+00
1.2043176410e+00
1.2043176410e+00
1.2043176410e+00
1.2043176410e+00
1.2043176410e+00