# vtk DataFile Version 2.0
Blank
ASCII
DATASET STRUCTURED_GRID
DIMENSIONS 101 101 2
POINTS 20402 float
0.0000000000e+00 0.0000000000e+00 0.0000000000e+00
1.0000000000e-02 0.0000000000e+00 0.0000000000e+00
2.0000000000e-02 0.0000000000e+00 0.0000000000e+00
3.0000000000e-02 0.0000000000e+00 0.0000000000e+00
4.0000000000e-02 0.0000000000e+00 0.0000000000e+00
5.0000000000e-02 0.0000000000e+00 0.0000000000e+00
6.0000000000e-02 0.0000000000e+00 0.0000000000e+00
7.0000000000e-02 0.0000000000e+00 0.0000000000e+00
8.0000000000e-02 0.0000000000e+00 0.0000000000e+00
9.0000000000e-02 0.0000000000e+00 0.0000000000e+00
1.0000000000e-01 0.0000000000e+00 0.0000000000e+00
1.1000000000e-01 0.0000000000e+00 0.0000000000e+00
1.2000000000e-01 0.0000000000e+00 0.0000000000e+00
1.3000000000e-01 0.0000000000e+00 0.0000000000e+00
1.4000000000e-01 0.0000000000e+00 0.0000000000e+00
1.5000000000e-01 0.0000000000e+00 0.0000000000e+00
1.6000000000e-01 0.0000000000e+00 0.0000000000e+00
1.7000000000e-01 0.0000000000e+00 0.0000000000e+00
1.8000000000e-01 0.0000000000e+00 0.0000000000e+00
1.9000000000e-01 0.0000000000e+00 0.0000000000e+00
2.0000000000e-01 0.0000000000e+00 0.0000000000e+00
2.1000000000e-01 0.0000000000e+00 0.0000000000e+00
2.2000000000e-01 0.0000000000e+00 0.0000000000e+00
2.3000000000e-01 0.0000000000e+00 0.0000000000e+00
2.4000000000e-01 0.0000000000e+00 0.0000000000e+00
2.5000000000e-01 0.0000000000e+00 0.0000000000e+00
2.6000000000e-01 0.0000000000e+00 0.0000000000e+00
2.7000000000e-01 0.0000000000e+00 0.0000000000e+00
2.8000000000e-01 0.0000000000e+00 0.0000000000e+00
2.9000000000e-01 0.0000000000e+00 0.0000000000e+00
3.0000000000e-01 0.0000000000e+00 0.0000000000e+00
3.1000000000e-01 0.0000000000e+00 0.0000000000e+00
3.2000000000e-01 0.0000000000e+00 0.0000000000e+00
3.3000000000e-01 0.0000000000e+00 0.0000000000e+00
3.4000000000e-01 0.0000000000e+00 0.0000000000e+00
3.5000000000e-01 0.0000000000e+00 0.0000000000e+00
3.6000000000e-01 0.0000000000e+00 0.0000000000e+00
3.7000000000e-01 0.0000000000e+00 0.0000000000e+00
3.8000000000e-01 0.0000000000e+00 0.0000000000e+00
3.9000000000e-01 0.0000000000e+00 0.0000000000e+00
4.0000000000e-01 0.0000000000e+00 0.0000000000e+00
4.1000000000e-01 0.0000000000e+00 0.0000000000e+00
4.2000000000e-01 0.0000000000e+00 0.0000000000e+00
4.3000000000e-01 0.0000000000e+00 0.0000000000e+00
4.4000000000e-01 0.0000000000e+00 0.0000000000e+00
4.5000000000e-01 0.0000000000e+00 0.0000000000e+00
4.6000000000e-01 0.0000000000e+00 0.0000000000e+00
4.7000000000e-01 0.0000000000e+00 0.0000000000e+00
4.8000000000e-01 0.0000000000e+00 0.0000000000e+00
4.9000000000e-01 0.0000000000e+00 0.0000000000e+00
5.0000000000e-01 0.0000000000e+00 0.0000000000e+00
5.1000000000e-01 0.0000000000e+00 0.0000000000e+00
5.2000000000e-01 0.0000000000e+00 0.0000000000e+00
5.3000000000e-01 0.0000000000e+00 0.0000000000e+00
5.4000000000e-01 0.0000000000e+00 0.0000000000e+00
5.5000000000e-01 0.0000000000e+00 0.0000000000e+00
5.6000000000e-01 0.0000000000e+00 0.0000000000e+00
5.7000000000e-01 0.0000000000e+00 0.0000000000e+00
5.8000000000e-01 0.0000000000e+00 0.0000000000e+00
5.9000000000e-01 0.0000000000e+00 0.0000000000e+00
6.0000000000e-01 0.0000000000e+00 0.0000000000e+00
6.1000000000e-01 0.0000000000e+00 0.0000000000e+00
6.2000000000e-01 0.0000000000e+00 0.0000000000e+00
6.3000000000e-01 0.0000000000e+00 0.0000000000e+00
6.4000000000e-01 0.0000000000e+00 0.0000000000e+00
6.5000000000e-01 0.0000000000e+00 0.0000000000e+00
6.6000000000e-01 0.0000000000e+00 0.0000000000e+00
6.7000000000e-01 0.0000000000e+00 0.0000000000e+00
6.8000000000e-01 0.0000000000e+00 0.0000000000e+00
6.9000000000e-01 0.0000000000e+00 0.0000000000e+00
7.0000000000e-01 0.0000000000e+00 0.0000000000e+00
7.1000000000e-01 0.0000000000e+00 0.0000000000e+00
7.2000000000e-01 0.0000000000e+00 0.0000000000e+00
7.3000000000e-01 0.0000000000e+00 0.0000000000e+00
7.4000000000e-01 0.0000000000e+00 0.0000000000e+00
7.5000000000e-01 0.0000000000e+00 0.0000000000e+00
7.6000000000e-01 0.0000000000e+00 0.0000000000e+00
7.7000000000e-01 0.0000000000e+00 0.0000000000e+00
7.8000000000e-01 0.0000000000e+00 0.0000000000e+00
7.9000000000e-01 0.0000000000e+00 0.0000000000e+00
8.0000000000e-01 0.0000000000e+00 0.0000000000e+00
8.1000000000e-01 0.0000000000e+00 0.0000000000e+00
8.2000000000e-01 0.0000000000e+00 0.0000000000e+00
8.3000000000e-01 0.0000000000e+00 0.0000000000e+00
8.4000000000e-01 0.0000000000e+00 0.0000000000e+00
8.5000000000e-01 0.0000000000e+00 0.0000000000e+00
8.6000000000e-01 0.0000000000e+00 0.0000000000e+00
8.7000000000e-01 0.0000000000e+00 0.0000000000e+00
8.8000000000e-01 0.0000000000e+00 0.0000000000e+00
8.9000000000e-01 0.0000000000e+00 0.0000000000e+00
9.0000000000e-01 0.0000000000e+00 0.0000000000e+00
9.1000000000e-01 0.0000000000e+00 0.0000000000e+00
9.2000000000e-01 0.0000000000e+00 0.0000000000e+00
9.3000000000e-01 0.0000000000e+00 0.0000000000e+00
9.4000000000e-01 0.0000000000e+00 0.0000000000e+00
9.5000000000e-01 0.0000000000e+00 0.0000000000e+00
9.6000000000e-01 0.0000000000e+00 0.0000000000e+00
9.7000000000e-01 0.0000000000e+00 0.0000000000e+00
9.8000000000e-01 0.0000000000e+00 0.0000000000e+00
9.9000000000e-01 0.0000000000e+00 0.0000000000e+00
1.0000000000e+00 0.0000000000e+00 0.0000000000e+00
0.0000000000e+00 1.0000000000e-02 0.0000000000e+00
1.0000000000e-02 1.0000000000e-02 0.0000000000e+00
2.0000000000e-02 1.0000000000e-02 0.0000000000e+00
3.0000000000e-02 1.0000000000e-02 0.0000000000e+00
4.0000000000e-02 1.0000000000e-02 0.0000000000e+00
5.0000000000e-02 1.0000000000e-02 0.0000000000e+00
6.0000000000e-02 1.0000000000e-02 0.0000000000e+00
7.0000000000e-02 1.0000000000e-02 0.0000000000e+00
8.0000000000e-02 1.0000000000e-02 0.0000000000e+00
9.0000000000e-02 1.0000000000e-02 0.0000000000e+00
1.0000000000e-01 1.0000000000e-02 0.0000000000e+00
1.1000000000e-01 1.0000000000e-02 0.0000000000e+00
1.2000000000e-01 1.0000000000e-02 0.0000000000e+00
1.3000000000e-01 1.0000000000e-02 0.0000000000e+00
1.4000000000e-01 1.0000000000e-02 0.0000000000e+00
1.5000000000e-01 1.0000000000e-02 0.0000000000e+00
1.6000000000e-01 1.0000000000e-02 0.0000000000e+00
1.7000000000e-01 1.0000000000e-02 0.0000000000e+00
1.8000000000e-01 1.0000000000e-02 0.0000000000e+00
1.9000000000e-01 1.0000000000e-02 0.0000000000e+00
2.0000000000e-01 1.0000000000e-02 0.0000000000e+00
2.1000000000e-01 1.0000000000e-02 0.0000000000e+00
2.2000000000e-01 1.0000000000e-02 0.0000000000e+00
2.3000000000e-01 1.0000000000e-02 0.0000000000e+00
2.4000000000e-01 1.0000000000e-02 0.0000000000e+00
2.5000000000e-01 1.0000000000e-02 0.0000000000e+00
2.6000000000e-01 1.0000000000e-02 0.0000000000e+00
2.7000000000e-01 1.0000000000e-02 0.0000000000e+00
2.8000000000e-01 1.0000000000e-02 0.0000000000e+00
2.9000000000e-01 1.0000000000e-02 0.0000000000e+00
3.0000000000e-01 1.0000000000e-02 0.0000000000e+00
3.1000000000e-01 1.0000000000e-02 0.0000000000e+00
3.2000000000e-01 1.0000000000e-02 0.0000000000e+00
3.3000000000e-01 1.0000000000e-02 0.0000000000e+00
3.4000000000e-01 1.0000000000e-02 0.0000000000e+00
3.5000000000e-01 1.0000000000e-02 0.0000000000e+00
3.6000000000e-01 1.0000000000e-02 0.0000000000e+00
3.7000000000e-01 1.0000000000e-02 0.0000000000e+00
3.8000000000e-01 1.0000000000e-02 0.0000000000e+00
3.9000000000e-01 1.0000000000e-02 0.0000000000e+00
4.0000000000e-01 1.0000000000e-02 0.0000000000e+00
4.1000000000e-01 1.0000000000e-02 0.0000000000e+00
4.2000000000e-01 1.0000000000e-02 0.0000000000e+00
4.3000000000e-01 1.0000000000e-02 0.0000000000e+00
4.4000000000e-01 1.0000000000e-02 0.0000000000e+00
4.5000000000e-01 1.0000000000e-02 0.0000000000e+00
4.6000000000e-01 1.0000000000e-02 0.0000000000e+00
4.7000000000e-01 1.0000000000e-02 0.0000000000e+00
4.8000000000e-01 1.0000000000e-02 0.0000000000e+00
4.9000000000e-01 1.0000000000e-02 0.0000000000e+00
5.0000000000e-01 1.0000000000e-02 0.0000000000e+00
5.1000000000e-01 1.0000000000e-02 0.0000000000e+00
5.2000000000e-01 1.0000000000e-02 0.0000000000e+00
5.3000000000e-01 1.0000000000e-02 0.0000000000e+00
5.4000000000e-01 1.0000000000e-02 0.0000000000e+00
5.5000000000e-01 1.0000000000e-02 0.0000000000e+00
5.6000000000e-01 1.0000000000e-02 0.0000000000e+00
5.7000000000e-01 1.0000000000e-02 0.0000000000e+00
5.8000000000e-01 1.0000000000e-02 0.0000000000e+00
5.9000000000e-01 1.0000000000e-02 0.0000000000e+00
6.0000000000e-01 1.0000000000e-02 0.0000000000e+00
6.1000000000e-01 1.0000000000e-02 0.0000000000e+00
6.2000000000e-01 1.0000000000e-02 0.0000000000e+00
6.3000000000e-01 1.0000000000e-02 0.0000000000e+00
6.4000000000e-01 1.0000000000e-02 0.0000000000e+00
6.5000000000e-01 1.0000000000e-02 0.0000000000e+00
6.6000000000e-01 1.0000000000e-02 0.0000000000e+00
6.7000000000e-01 1.0000000000e-02 0.0000000000e+00
6.8000000000e-01 1.0000000000e-02 0.0000000000e+00
6.9000000000e-01 1.0000000000e-02 0.0000000000e+00
7.0000000000e-01 1.0000000000e-02 0.0000000000e+00
7.1000000000e-01 1.0000000000e-02 0.0000000000e+00
7.2000000000e-01 1.0000000000e-02 0.0000000000e+00
7.3000000000e-01 1.0000000000e-02 0.0000000000e+00
7.4000000000e-01 1.0000000000e-02 0.0000000000e+00
7.5000000000e-01 1.0000000000e-02 0.0000000000e+00
7.6000000000e-01 1.0000000000e-02 0.0000000000e+00
7.7000000000e-01 1.0000000000e-02 0.0000000000e+00
7.8000000000e-01 1.0000000000e-02 0.0000000000e+00
7.9000000000e-01 1.0000000000e-02 0.0000000000e+00
8.0000000000e-01 1.0000000000e-02 0.0000000000e+00
8.1000000000e-01 1.0000000000e-02 0.0000000000e+00
8.2000000000e-01 1.0000000000e-02 0.0000000000e+00
8.3000000000e-01 1.0000000000e-02 0.0000000000e+00
8.4000000000e-01 1.0000000000e-02 0.0000000000e+00
8.5000000000e-01 1.0000000000e-02 0.0000000000e+00
8.6000000000e-01 1.0000000000e-02 0.0000000000e+00
8.7000000000e-01 1.0000000000e-02 0.0000000000e+00
8.8000000000e-01 1.0000000000e-02 0.0000000000e+00
8.9000000000e-01 1.0000000000e-02 0.0000000000e+00
9.0000000000e-01 1.0000000000e-02 0.0000000000e+00
9.1000000000e-01 1.0000000000e-02 0.0000000000e+00
9.2000000000e-01 1.0000000000e-02 0.0000000000e+00
[...]
CELL_DATA 10000

SCALARS massDensity float
LOOKUP_TABLE default
1.2003171153e+00
1.2003195016e+00
1.2003551327e+00
1.2004070407e+00
1.2004748064e+00
1.2005577461e+00
1.2006549334e+00
1.2007652341e+00
1.2008873460e+00
1.2010198342e+00
1.2011611687e+00
1.2013097568e+00
1.2014639763e+00
1.2016222051e+00
1.2017828514e+00
1.2019443777e+00
1.2021053269e+00
1.2022643404e+00
1.2024201773e+00
1.2025717257e+00
1.2027180146e+00
1.2028582178e+00
1.2029916585e+00
1.2031178063e+00
1.2032362751e+00
1.2033468149e+00
1.2034493039e+00
1.2035437367e+00
1.2036302131e+00
1.2037089237e+00
1.2037801374e+00
1.2038441865e+00
1.2039014540e+00
1.2039523600e+00
1.2039973503e+00
1.2040368846e+00
1.2040714273e+00
1.2041014385e+00
1.2041273672e+00
1.2041496453e+00
1.2041686830e+00
1.2041848654e+00
1.2041985506e+00
1.2042100678e+00
1.2042197174e+00
1.2042277713e+00
1.2042344733e+00
1.2042400407e+00
1.2042446658e+00
1.2042485179e+00
1.2042517449e+00
1.2042544758e+00
1.2042568222e+00
1.2042588806e+00
1.2042607336e+00
1.2042624529e+00
1.2042640990e+00
1.2042657246e+00
1.2042673740e+00
1.2042690858e+00
1.2042708927e+00
1.2042728233e+00
1.2042749015e+00
1.2042771489e+00
1.2042795833e+00
1.2042822210e+00
1.2042850753e+00
1.2042881583e+00
1.2042914797e+00
1.2042950482e+00
1.2042988701e+00
1.2043029506e+00
1.2043072926e+00
1.2043118980e+00
1.2043167657e+00
1.2043218936e+00
1.2043272763e+00
1.2043329073e+00
1.2043387762e+00
1.2043448714e+00
1.2043511775e+00
1.2043576768e+00
1.2043643481e+00
1.2043711676e+00
1.2043781070e+00
1.2043851349e+00
1.2043922142e+00
1.2043993030e+00
1.2044063514e+00
1.2044133014e+00
1.2044200826e+00
1.2044266108e+00
1.2044327815e+00
1.2044384646e+00
1.2044434935e+00
1.2044476508e+00
1.2044506448e+00
1.2044520831e+00
1.2044514601e+00
1.2044844835e+00
1.2003195016e+00
1.2003194654e+00
1.2003538571e+00
1.2004050911e+00
1.2004724993e+00
1.2005552466e+00
1.2006523168e+00
1.2007625277e+00
1.2008845512e+00
1.2010169438e+00
1.2011581730e+00
1.2013066517e+00
1.2014607643e+00
1.2016188996e+00
1.2017794748e+00
1.2019409647e+00
1.2021019212e+00
1.2022609960e+00
1.2024169549e+00
1.2025686933e+00
1.2027152429e+00
1.2028557807e+00
1.2029896286e+00
1.2031162548e+00
1.2032352682e+00
1.2033464135e+00
1.2034495609e+00
1.2035446971e+00
1.2036319121e+00
1.2037113873e+00
1.2037833812e+00
1.2038482170e+00
1.2039062680e+00
1.2039579463e+00
1.2040036895e+00
1.2040439509e+00
1.2040791890e+00
1.2041098593e+00
1.2041364069e+00
1.2041592611e+00
1.2041788300e+00
1.2041954974e+00
1.2042096205e+00
1.2042215284e+00
1.2042315215e+00
1.2042398714e+00
1.2042468223e+00
1.2042525915e+00
1.2042573714e+00
1.2042613308e+00
1.2042646176e+00
1.2042673597e+00
1.2042696679e+00
1.2042716374e+00
1.2042733498e+00
1.2042748745e+00
1.2042762708e+00
1.2042775889e+00
1.2042788716e+00
1.2042801548e+00
1.2042814695e+00
1.2042828415e+00
1.2042842934e+00
1.2042858439e+00
1.2042875095e+00
1.2042893038e+00
1.2042912394e+00
1.2042933261e+00
1.2042955732e+00
1.2042979874e+00
1.2043005755e+00
1.2043033417e+00
1.2043062899e+00
1.2043094217e+00
1.2043127383e+00
1.2043162385e+00
1.2043199205e+00
1.2043237797e+00
1.2043278110e+00
1.2043320066e+00
1.2043363574e+00
1.2043408519e+00
1.2043454771e+00
1.2043502174e+00
1.2043550555e+00
1.2043599706e+00
1.2043649402e+00
1.2043699375e+00
1.2043749324e+00
1.2043798897e+00
1.2043847688e+00
1.2043895219e+00
1.2043940938e+00
1.2043984196e+00
1.2044024252e+00
1.2044060271e+00
1.2044091404e+00
1.2044116981e+00
1.2044137135e+00
1.2044522974e+00
1.2003551327e+00
1.2003538571e+00
1.2003873178e+00
1.2004377183e+00
1.2005043213e+00
1.2005862408e+00
1.2006824327e+00
1.2007916994e+00
1.2009127109e+00
1.2010440254e+00
1.2011841201e+00
1.2013314159e+00
1.2014843109e+00
1.2016412042e+00
1.2018005273e+00
1.2019607651e+00
1.2021204824e+00
1.2022783395e+00
1.2024331130e+00
1.2025837044e+00
1.2027291534e+00
1.2028686406e+00
1.2030014927e+00
1.2031271793e+00
1.2032453115e+00
1.2033556332e+00
1.2034580150e+00
1.2035524414e+00
1.2036390013e+00
1.2037178731e+00
1.2037893137e+00
1.2038536427e+00
1.2039112318e+00
1.2039624896e+00
1.2040078519e+00
1.2040477692e+00
1.2040826979e+00
1.2041130914e+00
1.2041393930e+00
1.2041620296e+00
1.2041814077e+00
1.2041979093e+00
1.2042118898e+00
1.2042236764e+00
1.2042335675e+00
1.2042418333e+00
1.2042487158e+00
1.2042544305e+00
1.2042591677e+00
1.2042630947e+00
1.2042663570e+00
1.2042690810e+00
1.2042713755e+00
1.2042733342e+00
1.2042750365e+00
1.2042765506e+00
1.2042779341e+00
1.2042792359e+00
1.2042804970e+00
1.2042817528e+00
1.2042830323e+00
1.2042843610e+00
1.2042857598e+00
1.2042872470e+00
1.2042888379e+00
1.2042905460e+00
1.2042923824e+00
1.2042943572e+00
1.2042964783e+00
1.2042987532e+00
1.2043011870e+00
1.2043037848e+00
1.2043065494e+00
1.2043094833e+00
1.2043125869e+00
1.2043158598e+00
1.2043192998e+00
1.2043229035e+00
1.2043266656e+00
1.2043305796e+00
1.2043346370e+00
1.2043388279e+00
1.2043431403e+00
1.2043475610e+00
1.2043520743e+00
1.2043566630e+00
1.2043613074e+00
1.2043659860e+00
1.2043706742e+00
1.2043753451e+00
1.2043799684e+00
1.2043845113e+00
1.2043889382e+00
1.2043932133e+00
1.2043973031e+00
1.2044011847e+00
1.2044048606e+00
1.2044083915e+00
1.2044119583e+00
1.2044530123e+00
1.2004070407e+00
1.2004050911e+00
1.2004377183e+00
1.2004871810e+00
1.2005527366e+00
1.2006334902e+00
1.2007283896e+00
1.2008362394e+00
1.2009557139e+00
1.2010853843e+00
1.2012237404e+00
1.2013692223e+00
1.2015202439e+00
1.2016752256e+00
1.2018326152e+00
1.2019909181e+00
1.2021487137e+00
1.2023046806e+00
1.2024576071e+00
1.2026064090e+00
1.2027501347e+00
1.2028879748e+00
1.2030192611e+00
1.2031434692e+00
1.2032602119e+00
1.2033692358e+00
1.2034704104e+00
1.2035637202e+00
1.2036492509e+00
1.2037271792e+00
1.2037977576e+00
1.2038613031e+00
1.2039181821e+00
1.2039688001e+00
1.2040135880e+00
1.2040529926e+00
1.2040874659e+00
1.2041174574e+00
1.2041434065e+00
1.2041657367e+00
1.2041848506e+00
1.2042011268e+00
1.2042149174e+00
1.2042265463e+00
1.2042363088e+00
1.2042444719e+00
1.2042512748e+00
1.2042569299e+00
1.2042616249e+00
1.2042655241e+00
1.2042687708e+00
1.2042714884e+00
1.2042737838e+00
1.2042757478e+00
1.2042774583e+00
1.2042789811e+00
1.2042803720e+00
1.2042816779e+00
1.2042829387e+00
1.2042841875e+00
1.2042854526e+00
1.2042867575e+00
1.2042881225e+00
1.2042895642e+00
1.2042910974e+00
1.2042927342e+00
1.2042944853e+00
1.2042963594e+00
1.2042983644e+00
1.2043005064e+00
1.2043027910e+00
1.2043052218e+00
1.2043078022e+00
1.2043105336e+00
1.2043134171e+00
1.2043164516e+00
1.2043196356e+00
1.2043229656e+00
1.2043264373e+00
1.2043300445e+00
1.2043337800e+00
1.2043376350e+00
1.2043415994e+00
1.2043456617e+00
1.2043498092e+00
1.2043540275e+00
1.2043583015e+00
1.2043626142e+00
1.2043669482e+00
1.2043712842e+00
1.2043756033e+00
1.2043798862e+00
1.2043841161e+00
1.2043882803e+00
1.2043923767e+00
1.2043964213e+00
1.2044004644e+00
1.2044046151e+00
1.2044090828e+00
1.2044507451e+00
1.2004748064e+00
1.2004724993e+00
1.2005043213e+00
1.2005527366e+00
1.2006170256e+00
1.2006963028e+00
1.2007895281e+00
1.2008955161e+00
1.2010129593e+00
1.2011404458e+00
1.2012764898e+00
1.2014195525e+00
1.2015680757e+00
1.2017205020e+00
1.2018753072e+00
1.2020310180e+00
1.2021862395e+00
1.2023396685e+00
1.2024901147e+00
1.2026365085e+00
1.2027779145e+00
1.2029135332e+00
1.2030427074e+00
1.2031649180e+00
1.2032797840e+00
1.2033870532e+00
1.2034865971e+00
1.2035783980e+00
1.2036625409e+00
1.2037391977e+00
1.2038086178e+00
1.2038711123e+00
1.2039270433e+00
1.2039768096e+00
1.2040208371e+00
1.2040595659e+00
1.2040934429e+00
1.2041229114e+00
1.2041484054e+00
1.2041703427e+00
1.2041891209e+00
1.2042051135e+00
1.2042186677e+00
1.2042301028e+00
1.2042397097e+00
1.2042477511e+00
1.2042544620e+00
1.2042600513e+00
1.2042647026e+00
1.2042685771e+00
1.2042718142e+00
1.2042745350e+00
1.2042768427e+00
1.2042788259e+00
1.2042805595e+00
1.2042821073e+00
1.2042835224e+00
1.2042848501e+00
1.2042861278e+00
1.2042873875e+00
1.2042886551e+00
1.2042899533e+00
1.2042913001e+00
1.2042927118e+00
1.2042942010e+00
1.2042957795e+00
1.2042974562e+00
1.2042992396e+00
1.2043011360e+00
1.2043031514e+00
1.2043052900e+00
1.2043075556e+00
1.2043099503e+00
1.2043124759e+00
1.2043151325e+00
1.2043179197e+00
1.2043208354e+00
1.2043238769e+00
1.2043270399e+00
1.2043303193e+00
1.2043337087e+00
1.2043372008e+00
1.2043407871e+00
1.2043444584e+00
1.2043482045e+00
1.2043520149e+00
1.2043558781e+00
1.2043597830e+00
1.2043637179e+00
1.2043676722e+00
1.2043716362e+00
1.2043756033e+00
1.2043795710e+00
1.2043835448e+00
1.2043875425e+00
1.2043916026e+00
1.2043957942e+00
1.2044002343e+00
1.2044051069e+00
1.2044460180e+00
1.2005577461e+00
1.2005552466e+00
1.2005862408e+00
1.2006334902e+00
1.2006963028e+00
1.2007738175e+00
1.2008650125e+00
1.2009687267e+00
1.2010836742e+00
1.2012084729e+00
1.2013416628e+00
1.2014817389e+00
1.2016271712e+00
1.2017764373e+00
1.2019280407e+00
1.2020805412e+00
1.2022325690e+00
1.2023828501e+00
1.2025302150e+00
1.2026736175e+00
1.2028121376e+00
1.2029449931e+00
1.2030715366e+00
1.2031912601e+00
1.2033037867e+00
1.2034088699e+00
1.2035063807e+00
1.2035963027e+00
1.2036787166e+00
1.2037537921e+00
1.2038217723e+00
1.2038829633e+00
1.2039377196e+00
1.2039864340e+00
1.2040295238e+00
1.2040674227e+00
1.2041005691e+00
1.2041293994e+00
1.2041543401e+00
1.2041758021e+00
1.2041941760e+00
1.2042098288e+00
1.2042231015e+00
1.2042343074e+00
1.2042437317e+00
1.2042516317e+00
1.2042582375e+00
1.2042637529e+00
1.2042683574e+00
1.2042722075e+00
1.2042754393e+00
1.2042781693e+00
1.2042804981e+00
1.2042825105e+00
1.2042842789e+00
1.2042858639e+00
1.2042873165e+00
1.2042886792e+00
1.2042899878e+00
1.2042912715e+00
1.2042925552e+00
1.2042938591e+00
1.2042952004e+00
1.2042965930e+00
1.2042980490e+00
1.2042995782e+00
1.2043011890e+00
1.2043028881e+00
1.2043046816e+00
1.2043065737e+00
1.2043085687e+00
1.2043106688e+00
1.2043128764e+00
1.2043151921e+00
1.2043176162e+00
1.2043201476e+00
1.2043227848e+00
1.2043255248e+00
1.2043283641e+00
1.2043312981e+00
1.2043343215e+00
1.2043374283e+00
1.2043406119e+00
1.2043438650e+00
1.2043471807e+00
1.2043505512e+00
1.2043539698e+00
1.2043574297e+00
1.2043609258e+00
1.2043644541e+00
1.2043680138e+00
1.2043716076e+00
1.2043752446e+00
1.2043789419e+00
1.2043827298e+00
1.2043866559e+00
1.2043907932e+00
1.2043952470e+00
1.2044001631e+00
1.2044393335e+00
1.2006549334e+00
1.2006523168e+00
1.2006824327e+00
1.2007283896e+00
1.2007895281e+00
1.2008650125e+00
1.2009538510e+00
1.2010549090e+00
1.2011669348e+00
1.2012885766e+00
1.2014184134e+00
1.2015549735e+00
1.2016967681e+00
1.2018423088e+00
1.2019901393e+00
1.2021388515e+00
1.2022871123e+00
1.2024336751e+00
1.2025774017e+00
1.2027172675e+00
1.2028523768e+00
1.2029819626e+00
1.2031053943e+00
1.2032221725e+00
1.2033319305e+00
1.2034344241e+00
1.2035295286e+00
1.2036172250e+00
1.2036975934e+00
1.2037707976e+00
1.2038370762e+00
1.2038967271e+00
1.2039500982e+00
1.2039975727e+00
1.2040395600e+00
1.2040764840e+00
1.2041087745e+00
1.2041368586e+00
1.2041611539e+00
1.2041820628e+00
1.2041999676e+00
1.2042152272e+00
1.2042281751e+00
1.2042391174e+00
1.2042483325e+00
1.2042560712e+00
1.2042625576e+00
1.2042679899e+00
1.2042725422e+00
1.2042763663e+00
1.2042795933e+00
1.2042823361e+00
1.2042846908e+00
1.2042867391e+00
1.2042885496e+00
1.2042901803e+00
1.2042916789e+00
1.2042930859e+00
1.2042944340e+00
1.2042957510e+00
1.2042970591e+00
1.2042983772e+00
1.2042997203e+00
1.2043011012e+00
1.2043025300e+00
1.2043040155e+00
1.2043055645e+00
1.2043071831e+00
1.2043088755e+00
1.2043106458e+00
1.2043124965e+00
1.2043144299e+00
1.2043164470e+00
1.2043185485e+00
1.2043207338e+00
1.2043230020e+00
1.2043253512e+00
1.2043277790e+00
1.2043302819e+00
1.2043328564e+00
1.2043354978e+00
1.2043382018e+00
1.2043409631e+00
1.2043437771e+00
1.2043466389e+00
1.2043495445e+00
1.2043524906e+00
1.2043554753e+00
1.2043584983e+00
1.2043615621e+00
1.2043646725e+00
1.2043678399e+00
1.2043710808e+00
1.2043744203e+00
1.2043778942e+00
1.2043815528e+00
1.2043854640e+00
1.2043897166e+00
1.2043944195e+00
1.2044311325e+00
1.2007652341e+00
1.2007625277e+00
1.2007916994e+00
1.2008362394e+00
1.2008955161e+00
1.2009687267e+00
1.2010549090e+00
1.2011529659e+00
1.2012616794e+00
1.2013797406e+00
1.2015057661e+00
1.2016383310e+00
1.2017759855e+00
1.2019172880e+00
1.2020608209e+00
1.2022052198e+00
1.2023491861e+00
1.2024915122e+00
1.2026310882e+00
1.2027669212e+00
1.2028981370e+00
1.2030239919e+00
1.2031438692e+00
1.2032572850e+00
1.2033638792e+00
1.2034634158e+00
1.2035557702e+00
1.2036409254e+00
1.2037189568e+00
1.2037900252e+00
1.2038543612e+00
1.2039122563e+00
1.2039640480e+00
1.2040101111e+00
1.2040508438e+00
1.2040866602e+00
1.2041179791e+00
1.2041452175e+00
1.2041687823e+00
1.2041890660e+00
1.2042064412e+00
1.2042212576e+00
1.2042338398e+00
1.2042444855e+00
1.2042534654e+00
1.2042610227e+00
1.2042673746e+00
1.2042727129e+00
1.2042772058e+00
1.2042809993e+00
1.2042842198e+00
1.2042869751e+00
1.2042893573e+00
1.2042914437e+00
1.2042932997e+00
1.2042949796e+00
1.2042965286e+00
1.2042979837e+00
1.2042993759e+00
1.2043007299e+00
1.2043020664e+00
1.2043034018e+00
1.2043047497e+00
1.2043061209e+00
1.2043075244e+00
1.2043089671e+00
1.2043104550e+00
1.2043119922e+00
1.2043135827e+00
1.2043152288e+00
1.2043169327e+00
1.2043186955e+00
1.2043205177e+00
1.2043223993e+00
1.2043243396e+00
1.2043263372e+00
1.2043283903e+00
1.2043304965e+00
1.2043326531e+00
1.2043348568e+00
1.2043371043e+00
1.2043393922e+00
1.2043417172e+00
1.2043440765e+00
1.2043464678e+00
1.2043488899e+00
1.2043513431e+00
1.2043538292e+00
1.2043563527e+00
1.2043589208e+00
1.2043615447e+00
1.2043642401e+00
1.2043670289e+00
1.2043699401e+00
1.2043730119e+00
1.2043762928e+00
1.2043798431e+00
1.2043837344e+00
1.2043880471e+00
1.2044217904e+00
1.2008873460e+00
1.2008845512e+00
1.2009127109e+00
1.2009557139e+00
1.2010129593e+00
1.2010836742e+00
1.2011669348e+00
1.2012616794e+00
1.2013667352e+00
1.2014808340e+00
1.2016026428e+00
1.2017307801e+00
1.2018638487e+00
1.2020004509e+00
1.2021392196e+00
1.2022788315e+00
1.2024180344e+00
1.2025556557e+00
1.2026906250e+00
1.2028219775e+00
1.2029488694e+00
1.2030705771e+00
1.2031865056e+00
1.2032961824e+00
1.2033992606e+00
1.2034955080e+00
1.2035848057e+00
1.2036671344e+00
1.2037425686e+00
1.2038112623e+00
1.2038734404e+00
1.2039293844e+00
1.2039794232e+00
1.2040239195e+00
1.2040632613e+00
1.2040978501e+00
1.2041280933e+00
1.2041543956e+00
1.2041771528e+00
1.2041967456e+00
1.2042135359e+00
1.2042278629e+00
1.2042400412e+00
1.2042503592e+00
1.2042590784e+00
1.2042664342e+00
1.2042726358e+00
1.2042778680e+00
1.2042822920e+00
1.2042860483e+00
1.2042892571e+00
1.2042920215e+00
1.2042944284e+00
1.2042965515e+00
1.2042984517e+00
1.2043001803e+00
1.2043017786e+00
1.2043032816e+00
1.2043047167e+00
1.2043061069e+00
1.2043074701e+00
1.2043088213e+00
1.2043101718e+00
1.2043115311e+00
1.2043129061e+00
1.2043143029e+00
1.2043157255e+00
1.2043171774e+00
1.2043186610e+00
1.2043201781e+00
1.2043217296e+00
1.2043233159e+00
1.2043249370e+00
1.2043265923e+00
1.2043282806e+00
1.2043300006e+00
1.2043317503e+00
1.2043335276e+00
1.2043353300e+00
1.2043371551e+00
1.2043390004e+00
1.2043408638e+00
1.2043427435e+00
1.2043446386e+00
1.2043465491e+00
1.2043484764e+00
1.2043504236e+00
1.2043523961e+00
1.2043544019e+00
1.2043564522e+00
1.2043585619e+00
1.2043607509e+00
1.2043630439e+00
1.2043654721e+00
1.2043680733e+00
1.2043708928e+00
1.2043739828e+00
1.2043774010e+00
1.2043812059e+00
1.2044116254e+00
1.2010198342e+00
1.2010169438e+00
1.2010440254e+00
1.2010853843e+00
1.2011404458e+00
1.2012084729e+00
1.2012885766e+00
1.2013797406e+00
1.2014808340e+00
1.2015906410e+00
1.2017078752e+00
1.2018312115e+00
1.2019593010e+00
1.2020908024e+00
1.2022243954e+00
1.2023588097e+00
1.2024928349e+00
1.2026253455e+00
1.2027553055e+00
1.2028817883e+00
1.2030039766e+00
1.2031211752e+00
1.2032328064e+00
1.2033384166e+00
1.2034376674e+00
1.2035303367e+00
1.2036163068e+00
1.2036955604e+00
1.2037681674e+00
1.2038342779e+00
1.2038941077e+00
1.2039479303e+00
1.2039960625e+00
1.2040388564e+00
1.2040766865e+00
1.2041099423e+00
1.2041390174e+00
1.2041643040e+00
1.2041861847e+00
1.2042050280e+00
1.2042211836e+00
1.2042349792e+00
1.2042467185e+00
1.2042566793e+00
1.2042651139e+00
1.2042722481e+00
1.2042782831e+00
1.2042833954e+00
1.2042877396e+00
1.2042914490e+00
1.2042946384e+00
1.2042974047e+00
1.2042998305e+00
1.2043019843e+00
1.2043039236e+00
1.2043056952e+00
1.2043073379e+00
1.2043088828e+00
1.2043103554e+00
1.2043117756e+00
1.2043131596e+00
1.2043145198e+00
1.2043158662e+00
1.2043172062e+00
1.2043185456e+00
1.2043198885e+00
1.2043212383e+00
1.2043225969e+00
1.2043239659e+00
1.2043253458e+00
1.2043267370e+00
1.2043281391e+00
1.2043295515e+00
1.2043309731e+00
1.2043324026e+00
1.2043338383e+00
1.2043352784e+00
1.2043367209e+00
1.2043381639e+00
1.2043396056e+00
1.2043410444e+00
1.2043424794e+00
1.2043439102e+00
1.2043453376e+00
1.2043467636e+00
1.2043481919e+00
1.2043496281e+00
1.2043510804e+00
1.2043525596e+00
1.2043540800e+00
1.2043556593e+00
1.2043573197e+00
1.2043590878e+00
1.2043609952e+00
1.2043630787e+00
1.2043653795e+00
1.2043679429e+00
1.2043708154e+00
1.2043740411e+00
1.2044009077e+00
1.2011611687e+00
1.2011581730e+00
1.2011841201e+00
1.2012237404e+00
1.2012764898e+00
1.2013416628e+00
1.2014184134e+00
1.2015057661e+00
1.2016026428e+00
1.2017078752e+00
1.2018202356e+00
1.2019384503e+00
1.2020612310e+00
1.2021872879e+00
1.2023153595e+00
1.2024442235e+00
1.2025727231e+00
1.2026997738e+00
1.2028243856e+00
1.2029456645e+00
1.2030628291e+00
1.2031752075e+00
1.2032822474e+00
1.2033835092e+00
1.2034786699e+00
1.2035675126e+00
1.2036499259e+00
1.2037258907e+00
1.2037954758e+00
1.2038588238e+00
1.2039161440e+00
1.2039676983e+00
1.2040137935e+00
1.2040547679e+00
1.2040909835e+00
1.2041228150e+00
1.2041506428e+00
1.2041748445e+00
1.2041957892e+00
1.2042138317e+00
1.2042293087e+00
1.2042425355e+00
1.2042538039e+00
1.2042633808e+00
1.2042715076e+00
1.2042784008e+00
1.2042842520e+00
1.2042892300e+00
1.2042934812e+00
1.2042971324e+00
1.2043002912e+00
1.2043030497e+00
1.2043054844e+00
1.2043076597e+00
1.2043096282e+00
1.2043114335e+00
1.2043131105e+00
1.2043146876e+00
1.2043161871e+00
1.2043176270e+00
1.2043190207e+00
1.2043203791e+00
1.2043217100e+00
1.2043230195e+00
1.2043243116e+00
1.2043255896e+00
1.2043268552e+00
1.2043281095e+00
1.2043293529e+00
1.2043305854e+00
1.2043318064e+00
1.2043330150e+00
1.2043342101e+00
1.2043353903e+00
1.2043365540e+00
1.2043376995e+00
1.2043388251e+00
1.2043399291e+00
1.2043410102e+00
1.2043420670e+00
1.2043430990e+00
1.2043441063e+00
1.2043450899e+00
1.2043460521e+00
1.2043469966e+00
1.2043479290e+00
1.2043488573e+00
1.2043497915e+00
1.2043507449e+00
1.2043517337e+00
1.2043527778e+00
1.2043539007e+00
1.2043551298e+00
1.2043564966e+00
1.2043580358e+00
1.2043597853e+00
1.2043617844e+00
1.2043640719e+00
1.2043666817e+00
1.2043898687e+00
1.2013097568e+00
1.2013066517e+00
1.2013314159e+00
1.2013692223e+00
1.2014195525e+00
1.2014817389e+00
1.2015549735e+00
1.2016383310e+00
1.2017307801e+00
1.2018312115e+00
1.2019384503e+00
1.2020512858e+00
1.2021684847e+00
1.2022888205e+00
1.2024110844e+00
1.2025341136e+00
1.2026567988e+00
1.2027781079e+00
1.2028970902e+00
1.2030128947e+00
1.2031247699e+00
1.2032320760e+00
1.2033342806e+00
1.2034309655e+00
1.2035218177e+00
1.2036066317e+00
1.2036852979e+00
1.2037577998e+00
1.2038242012e+00
1.2038846404e+00
1.2039393166e+00
1.2039884828e+00
1.2040324323e+00
1.2040714910e+00
1.2041060061e+00
1.2041363382e+00
1.2041628523e+00
1.2041859115e+00
1.2042058697e+00
1.2042230678e+00
1.2042378285e+00
1.2042504539e+00
1.2042612232e+00
1.2042703914e+00
1.2042781890e+00
1.2042848218e+00
1.2042904725e+00
1.2042953003e+00
1.2042994442e+00
1.2043030231e+00
1.2043061385e+00
1.2043088758e+00
1.2043113067e+00
1.2043134902e+00
1.2043154750e+00
1.2043173003e+00
1.2043189981e+00
1.2043205931e+00
1.2043221054e+00
1.2043235501e+00
1.2043249389e+00
1.2043262803e+00
1.2043275809e+00
1.2043288448e+00
1.2043300751e+00
1.2043312734e+00
1.2043324407e+00
1.2043335770e+00
1.2043346820e+00
1.2043357548e+00
1.2043367944e+00
1.2043377994e+00