# vtk DataFile Version 2.0
Blank
ASCII
DATASET STRUCTURED_GRID
DIMENSIONS 101 101 2
POINTS 20402 float
0.0000000000e+00 0.0000000000e+00 0.0000000000e+00
1.0000000000e-02 0.0000000000e+00 0.0000000000e+00
2.0000000000e-02 0.0000000000e+00 0.0000000000e+00
3.0000000000e-02 0.0000000000e+00 0.0000000000e+00
4.0000000000e-02 0.0000000000e+00 0.0000000000e+00
5.0000000000e-02 0.0000000000e+00 0.0000000000e+00
6.0000000000e-02 0.0000000000e+00 0.0000000000e+00
7.0000000000e-02 0.0000000000e+00 0.0000000000e+00
8.0000000000e-02 0.0000000000e+00 0.0000000000e+00
9.0000000000e-02 0.0000000000e+00 0.0000000000e+00
1.0000000000e-01 0.0000000000e+00 0.0000000000e+00
1.1000000000e-01 0.0000000000e+00 0.0000000000e+00
1.2000000000e-01 0.0000000000e+00 0.0000000000e+00
1.3000000000e-01 0.0000000000e+00 0.0000000000e+00
1.4000000000e-01 0.0000000000e+00 0.0000000000e+00
1.5000000000e-01 0.0000000000e+00 0.0000000000e+00
1.6000000000e-01 0.0000000000e+00 0.0000000000e+00
1.7000000000e-01 0.0000000000e+00 0.0000000000e+00
1.8000000000e-01 0.0000000000e+00 0.0000000000e+00
1.9000000000e-01 0.0000000000e+00 0.0000000000e+00
2.0000000000e-01 0.0000000000e+00 0.0000000000e+00
2.1000000000e-01 0.0000000000e+00 0.0000000000e+00
2.2000000000e-01 0.0000000000e+00 0.0000000000e+00
2.3000000000e-01 0.0000000000e+00 0.0000000000e+00
2.4000000000e-01 0.0000000000e+00 0.0000000000e+00
2.5000000000e-01 0.0000000000e+00 0.0000000000e+00
2.6000000000e-01 0.0000000000e+00 0.0000000000e+00
2.7000000000e-01 0.0000000000e+00 0.0000000000e+00
2.8000000000e-01 0.0000000000e+00 0.0000000000e+00
2.9000000000e-01 0.0000000000e+00 0.0000000000e+00
3.0000000000e-01 0.0000000000e+00 0.0000000000e+00
3.1000000000e-01 0.0000000000e+00 0.0000000000e+00
3.2000000000e-01 0.0000000000e+00 0.0000000000e+00
3.3000000000e-01 0.0000000000e+00 0.0000000000e+00
3.4000000000e-01 0.0000000000e+00 0.0000000000e+00
3.5000000000e-01 0.0000000000e+00 0.0000000000e+00
3.6000000000e-01 0.0000000000e+00 0.0000000000e+00
3.7000000000e-01 0.0000000000e+00 0.0000000000e+00
3.8000000000e-01 0.0000000000e+00 0.0000000000e+00
3.9000000000e-01 0.0000000000e+00 0.0000000000e+00
4.0000000000e-01 0.0000000000e+00 0.0000000000e+00
4.1000000000e-01 0.0000000000e+00 0.0000000000e+00
4.2000000000e-01 0.0000000000e+00 0.0000000000e+00
4.3000000000e-01 0.0000000000e+00 0.0000000000e+00
4.4000000000e-01 0.0000000000e+00 0.0000000000e+00
4.5000000000e-01 0.0000000000e+00 0.0000000000e+00
4.6000000000e-01 0.0000000000e+00 0.0000000000e+00
4.7000000000e-01 0.0000000000e+00 0.0000000000e+00
4.8000000000e-01 0.0000000000e+00 0.0000000000e+00
4.9000000000e-01 0.0000000000e+00 0.0000000000e+00
5.0000000000e-01 0.0000000000e+00 0.0000000000e+00
5.1000000000e-01 0.0000000000e+00 0.0000000000e+00
5.2000000000e-01 0.0000000000e+00 0.0000000000e+00
5.3000000000e-01 0.0000000000e+00 0.0000000000e+00
5.4000000000e-01 0.0000000000e+00 0.0000000000e+00
5.5000000000e-01 0.0000000000e+00 0.0000000000e+00
5.6000000000e-01 0.0000000000e+00 0.0000000000e+00
5.7000000000e-01 0.0000000000e+00 0.0000000000e+00
5.8000000000e-01 0.0000000000e+00 0.0000000000e+00
5.9000000000e-01 0.0000000000e+00 0.0000000000e+00
6.0000000000e-01 0.0000000000e+00 0.0000000000e+00
6.1000000000e-01 0.0000000000e+00 0.0000000000e+00
6.2000000000e-01 0.0000000000e+00 0.0000000000e+00
6.3000000000e-01 0.0000000000e+00 0.0000000000e+00
6.4000000000e-01 0.0000000000e+00 0.0000000000e+00
6.5000000000e-01 0.0000000000e+00 0.0000000000e+00
6.6000000000e-01 0.0000000000e+00 0.0000000000e+00
6.7000000000e-01 0.0000000000e+00 0.0000000000e+00
6.8000000000e-01 0.0000000000e+00 0.0000000000e+00
6.9000000000e-01 0.0000000000e+00 0.0000000000e+00
7.0000000000e-01 0.0000000000e+00 0.0000000000e+00
7.1000000000e-01 0.0000000000e+00 0.0000000000e+00
7.2000000000e-01 0.0000000000e+00 0.0000000000e+00
7.3000000000e-01 0.0000000000e+00 0.0000000000e+00
7.4000000000e-01 0.0000000000e+00 0.0000000000e+00
7.5000000000e-01 0.0000000000e+00 0.0000000000e+00
7.6000000000e-01 0.0000000000e+00 0.0000000000e+00
7.7000000000e-01 0.0000000000e+00 0.0000000000e+00
7.8000000000e-01 0.0000000000e+00 0.0000000000e+00
7.9000000000e-01 0.0000000000e+00 0.0000000000e+00
8.0000000000e-01 0.0000000000e+00 0.0000000000e+00
8.1000000000e-01 0.0000000000e+00 0.0000000000e+00
8.2000000000e-01 0.0000000000e+00 0.0000000000e+00
8.3000000000e-01 0.0000000000e+00 0.0000000000e+00
8.4000000000e-01 0.0000000000e+00 0.0000000000e+00
8.5000000000e-01 0.0000000000e+00 0.0000000000e+00
8.6000000000e-01 0.0000000000e+00 0.0000000000e+00
8.7000000000e-01 0.0000000000e+00 0.0000000000e+00
8.8000000000e-01 0.0000000000e+00 0.0000000000e+00
8.9000000000e-01 0.0000000000e+00 0.0000000000e+00
9.0000000000e-01 0.0000000000e+00 0.0000000000e+00
9.1000000000e-01 0.0000000000e+00 0.0000000000e+00
9.2000000000e-01 0.0000000000e+00 0.0000000000e+00
9.3000000000e-01 0.0000000000e+00 0.0000000000e+00
9.4000000000e-01 0.0000000000e+00 0.0000000000e+00
9.5000000000e-01 0.0000000000e+00 0.0000000000e+00
9.6000000000e-01 0.0000000000e+00 0.0000000000e+00
9.7000000000e-01 0.0000000000e+00 0.0000000000e+00
9.8000000000e-01 0.0000000000e+00 0.0000000000e+00
9.9000000000e-01 0.0000000000e+00 0.0000000000e+00
1.0000000000e+00 0.0000000000e+00 0.0000000000e+00
0.0000000000e+00 1.0000000000e-02 0.0000000000e+00
1.0000000000e-02 1.0000000000e-02 0.0000000000e+00
2.0000000000e-02 1.0000000000e-02 0.0000000000e+00
3.0000000000e-02 1.0000000000e-02 0.0000000000e+00
4.0000000000e-02 1.0000000000e-02 0.0000000000e+00
5.0000000000e-02 1.0000000000e-02 0.0000000000e+00
6.0000000000e-02 1.0000000000e-02 0.0000000000e+00
7.0000000000e-02 1.0000000000e-02 0.0000000000e+00
8.0000000000e-02 1.0000000000e-02 0.0000000000e+00
9.0000000000e-02 1.0000000000e-02 0.0000000000e+00
1.0000000000e-01 1.0000000000e-02 0.0000000000e+00
1.1000000000e-01 1.0000000000e-02 0.0000000000e+00
1.2000000000e-01 1.0000000000e-02 0.0000000000e+00
1.3000000000e-01 1.0000000000e-02 0.0000000000e+00
1.4000000000e-01 1.0000000000e-02 0.0000000000e+00
1.5000000000e-01 1.0000000000e-02 0.0000000000e+00
1.6000000000e-01 1.0000000000e-02 0.0000000000e+00
1.7000000000e-01 1.0000000000e-02 0.0000000000e+00
1.8000000000e-01 1.0000000000e-02 0.0000000000e+00
1.9000000000e-01 1.0000000000e-02 0.0000000000e+00
2.0000000000e-01 1.0000000000e-02 0.0000000000e+00
2.1000000000e-01 1.0000000000e-02 0.0000000000e+00
2.2000000000e-01 1.0000000000e-02 0.0000000000e+00
2.3000000000e-01 1.0000000000e-02 0.0000000000e+00
2.4000000000e-01 1.0000000000e-02 0.0000000000e+00
2.5000000000e-01 1.0000000000e-02 0.0000000000e+00
2.6000000000e-01 1.0000000000e-02 0.0000000000e+00
2.7000000000e-01 1.0000000000e-02 0.0000000000e+00
2.8000000000e-01 1.0000000000e-02 0.0000000000e+00
2.9000000000e-01 1.0000000000e-02 0.0000000000e+00
3.0000000000e-01 1.0000000000e-02 0.0000000000e+00
3.1000000000e-01 1.0000000000e-02 0.0000000000e+00
3.2000000000e-01 1.0000000000e-02 0.0000000000e+00
3.3000000000e-01 1.0000000000e-02 0.0000000000e+00
3.4000000000e-01 1.0000000000e-02 0.0000000000e+00
3.5000000000e-01 1.0000000000e-02 0.0000000000e+00
3.6000000000e-01 1.0000000000e-02 0.0000000000e+00
3.7000000000e-01 1.0000000000e-02 0.0000000000e+00
3.8000000000e-01 1.0000000000e-02 0.0000000000e+00
3.9000000000e-01 1.0000000000e-02 0.0000000000e+00
4.0000000000e-01 1.0000000000e-02 0.0000000000e+00
4.1000000000e-01 1.0000000000e-02 0.0000000000e+00
4.2000000000e-01 1.0000000000e-02 0.0000000000e+00
4.3000000000e-01 1.0000000000e-02 0.0000000000e+00
4.4000000000e-01 1.0000000000e-02 0.0000000000e+00
4.5000000000e-01 1.0000000000e-02 0.0000000000e+00
4.6000000000e-01 1.0000000000e-02 0.0000000000e+00
4.7000000000e-01 1.0000000000e-02 0.0000000000e+00
4.8000000000e-01 1.0000000000e-02 0.0000000000e+00
4.9000000000e-01 1.0000000000e-02 0.0000000000e+00
5.0000000000e-01 1.0000000000e-02 0.0000000000e+00
5.1000000000e-01 1.0000000000e-02 0.0000000000e+00
5.2000000000e-01 1.0000000000e-02 0.0000000000e+00
5.3000000000e-01 1.0000000000e-02 0.0000000000e+00
5.4000000000e-01 1.0000000000e-02 0.0000000000e+00
5.5000000000e-01 1.0000000000e-02 0.0000000000e+00
5.6000000000e-01 1.0000000000e-02 0.0000000000e+00
5.7000000000e-01 1.0000000000e-02 0.0000000000e+00
5.8000000000e-01 1.0000000000e-02 0.0000000000e+00
5.9000000000e-01 1.0000000000e-02 0.0000000000e+00
6.0000000000e-01 1.0000000000e-02 0.0000000000e+00
6.1000000000e-01 1.0000000000e-02 0.0000000000e+00
6.2000000000e-01 1.0000000000e-02 0.0000000000e+00
6.3000000000e-01 1.0000000000e-02 0.0000000000e+00
6.4000000000e-01 1.0000000000e-02 0.0000000000e+00
6.5000000000e-01 1.0000000000e-02 0.0000000000e+00
6.6000000000e-01 1.0000000000e-02 0.0000000000e+00
6.7000000000e-01 1.0000000000e-02 0.0000000000e+00
6.8000000000e-01 1.0000000000e-02 0.0000000000e+00
6.9000000000e-01 1.0000000000e-02 0.0000000000e+00
7.0000000000e-01 1.0000000000e-02 0.0000000000e+00
7.1000000000e-01 1.0000000000e-02 0.0000000000e+00
7.2000000000e-01 1.0000000000e-02 0.0000000000e+00
7.3000000000e-01 1.0000000000e-02 0.0000000000e+00
7.4000000000e-01 1.0000000000e-02 0.0000000000e+00
7.5000000000e-01 1.0000000000e-02 0.0000000000e+00
7.6000000000e-01 1.0000000000e-02 0.0000000000e+00
7.7000000000e-01 1.0000000000e-02 0.0000000000e+00
7.8000000000e-01 1.0000000000e-02 0.0000000000e+00
7.9000000000e-01 1.0000000000e-02 0.0000000000e+00
8.0000000000e-01 1.0000000000e-02 0.0000000000e+00
8.1000000000e-01 1.0000000000e-02 0.0000000000e+00
8.2000000000e-01 1.0000000000e-02 0.0000000000e+00
8.3000000000e-01 1.0000000000e-02 0.0000000000e+00
8.4000000000e-01 1.0000000000e-02 0.0000000000e+00
8.5000000000e-01 1.0000000000e-02 0.0000000000e+00
8.6000000000e-01 1.0000000000e-02 0.0000000000e+00
8.7000000000e-01 1.0000000000e-02 0.0000000000e+00
8.8000000000e-01 1.0000000000e-02 0.0000000000e+00
8.9000000000e-01 1.0000000000e-02 0.0000000000e+00
9.0000000000e-01 1.0000000000e-02 0.0000000000e+00
9.1000000000e-01 1.0000000000e-02 0.0000000000e+00
9.2000000000e-01 1.0000000000e-02 0.0000000000e+00
[...]
CELL_DATA 10000

SCALARS massDensity float
LOOKUP_TABLE default
1.1920901758e+00
1.1922888150e+00
1.1925743248e+00
1.1929969096e+00
1.1935402157e+00
1.1941843647e+00
1.1949070156e+00
1.1956846305e+00
1.1964935624e+00
1.1973112491e+00
1.1981170798e+00
1.1988932365e+00
1.1996251240e+00
1.2003017158e+00
1.2009155038e+00
1.2014623852e+00
1.2019412459e+00
1.2023535526e+00
1.2027027656e+00
1.2029938394e+00
1.2032326525e+00
1.2034255797e+00
1.2035790601e+00
1.2036993234e+00
1.2037921367e+00
1.2038626907e+00
1.2039155019e+00
1.2039544191e+00
1.2039826281e+00
1.2040027243e+00
1.2040167662e+00
1.2040263683e+00
1.2040327657e+00
1.2040368986e+00
1.2040394670e+00
1.2040409957e+00
1.2040418728e+00
1.2040423938e+00
1.2040427860e+00
1.2040432352e+00
1.2040439008e+00
1.2040449301e+00
1.2040464684e+00
1.2040486653e+00
1.2040516830e+00
1.2040556969e+00
1.2040609046e+00
1.2040675225e+00
1.2040757954e+00
1.2040859900e+00
1.2040984056e+00
1.2041133638e+00
1.2041312191e+00
1.2041523442e+00
1.2041771382e+00
1.2042060043e+00
1.2042393524e+00
1.2042775649e+00
1.2043209880e+00
1.2043698799e+00
1.2044243869e+00
1.2044844710e+00
1.2045498730e+00
1.2046200287e+00
1.2046940351e+00
1.2047705806e+00
1.2048479507e+00
1.2049240124e+00
1.2049963029e+00
1.2050621039e+00
1.2051186342e+00
1.2051632102e+00
1.2051935109e+00
1.2052077583e+00
1.2052049623e+00
1.2051850112e+00
1.2051487856e+00
1.2050980667e+00
1.2050354623e+00
1.2049641335e+00
1.2048875799e+00
1.2048092888e+00
1.2047325121e+00
1.2046599864e+00
1.2045938250e+00
1.2045354065e+00
1.2044854220e+00
1.2044439237e+00
1.2044104760e+00
1.2043842814e+00
1.2043643443e+00
1.2043495886e+00
1.2043389688e+00
1.2043315336e+00
1.2043264706e+00
1.2043231178e+00
1.2043209613e+00
1.2043196185e+00
1.2043188184e+00
1.2043184857e+00
1.1922888150e+00
1.1924969785e+00
1.1927846527e+00
1.1932055421e+00
1.1937443260e+00
1.1943818293e+00
1.1950963632e+00
1.1958648125e+00
1.1966639969e+00
1.1974716367e+00
1.1982674722e+00
1.1990338694e+00
1.1997564820e+00
1.2004243806e+00
1.2010302091e+00
1.2015698862e+00
1.2020423663e+00
1.2024490793e+00
1.2027934920e+00
1.2030804853e+00
1.2033159060e+00
1.2035060396e+00
1.2036572766e+00
1.2037757583e+00
1.2038672017e+00
1.2039367199e+00
1.2039887865e+00
1.2040271878e+00
1.2040550765e+00
1.2040750002e+00
1.2040889932e+00
1.2040986339e+00
1.2041051389e+00
1.2041094197e+00
1.2041121600e+00
1.2041138594e+00
1.2041148884e+00
1.2041155171e+00
1.2041159504e+00
1.2041163454e+00
1.2041168315e+00
1.2041175208e+00
1.2041185180e+00
1.2041199283e+00
1.2041218598e+00
1.2041244313e+00
1.2041277699e+00
1.2041320198e+00
1.2041373365e+00
1.2041438969e+00
1.2041518899e+00
1.2041615285e+00
1.2041730372e+00
1.2041866651e+00
1.2042026693e+00
1.2042213286e+00
1.2042429213e+00
1.2042677367e+00
1.2042960452e+00
1.2043281022e+00
1.2043641047e+00
1.2044041844e+00
1.2044483452e+00
1.2044964436e+00
1.2045481113e+00
1.2046027338e+00
1.2046593772e+00
1.2047167942e+00
1.2047733909e+00
1.2048273004e+00
1.2048764237e+00
1.2049185950e+00
1.2049516980e+00
1.2049738990e+00
1.2049837832e+00
1.2049805764e+00
1.2049642025e+00
1.2049353969e+00
1.2048956047e+00
1.2048469374e+00
1.2047919156e+00
1.2047333141e+00
1.2046738474e+00
1.2046160168e+00
1.2045618679e+00
1.2045129399e+00
1.2044701706e+00
1.2044339689e+00
1.2044042516e+00
1.2043805853e+00
1.2043622812e+00
1.2043485320e+00
1.2043384938e+00
1.2043313719e+00
1.2043264593e+00
1.2043231669e+00
1.2043210246e+00
1.2043196767e+00
1.2043188659e+00
1.2043185426e+00
1.1925743248e+00
1.1927846527e+00
1.1930674965e+00
1.1934794583e+00
1.1940057911e+00
1.1946280654e+00
1.1953251779e+00
1.1960747551e+00
1.1968541528e+00
1.1976417620e+00
1.1984177572e+00
1.1991650366e+00
1.1998695409e+00
1.2005206925e+00
1.2011112596e+00
1.2016373305e+00
1.2020978395e+00
1.2024942375e+00
1.2028298693e+00
1.2031095390e+00
1.2033389194e+00
1.2035241735e+00
1.2036715088e+00
1.2037869386e+00
1.2038760170e+00
1.2039437475e+00
1.2039944746e+00
1.2040319029e+00
1.2040590916e+00
1.2040785340e+00
1.2040922012e+00
1.2041016391e+00
1.2041080240e+00
1.2041122495e+00
1.2041149745e+00
1.2041166891e+00
1.2041177487e+00
1.2041184178e+00
1.2041188915e+00
1.2041193222e+00
1.2041198321e+00
1.2041205274e+00
1.2041215066e+00
1.2041228662e+00
1.2041247077e+00
1.2041271377e+00
1.2041302749e+00
1.2041342468e+00
1.2041391975e+00
1.2041452812e+00
1.2041526714e+00
1.2041615518e+00
1.2041721270e+00
1.2041846099e+00
1.2041992355e+00
1.2042162444e+00
1.2042358981e+00
1.2042584588e+00
1.2042842025e+00
1.2043133914e+00
1.2043462790e+00
1.2043830671e+00
1.2044238947e+00
1.2044687729e+00
1.2045175545e+00
1.2045698504e+00
1.2046249945e+00
1.2046819681e+00
1.2047393987e+00
1.2047955382e+00
1.2048483456e+00
1.2048955575e+00
1.2049348778e+00
1.2049641311e+00
1.2049815190e+00
1.2049857754e+00
1.2049763869e+00
1.2049536315e+00
1.2049186570e+00
1.2048733271e+00
1.2048201291e+00
1.2047618638e+00
1.2047014623e+00
1.2046416524e+00
1.2045848173e+00
1.2045327764e+00
1.2044867747e+00
1.2044474292e+00
1.2044148426e+00
1.2043886697e+00
1.2043682786e+00
1.2043528526e+00
1.2043415212e+00
1.2043334331e+00
1.2043278252e+00
1.2043240474e+00
1.2043215785e+00
1.2043200186e+00
1.2043190776e+00
1.2043187032e+00
1.1929969096e+00
1.1932055421e+00
1.1934794583e+00
1.1938772930e+00
1.1943849684e+00
1.1949847164e+00
1.1956563808e+00
1.1963783590e+00
1.1971289902e+00
1.1978873815e+00
1.1986345665e+00
1.1993539894e+00
1.2000322202e+00
1.2006589960e+00
1.2012274451e+00
1.2017337386e+00
1.2021769254e+00
1.2025583543e+00
1.2028813043e+00
1.2031503637e+00
1.2033710386e+00
1.2035492326e+00
1.2036909547e+00
1.2038019695e+00
1.2038876471e+00
1.2039527842e+00
1.2040015794e+00
1.2040375821e+00
1.2040637490e+00
1.2040824662e+00
1.2040956400e+00
1.2041047469e+00
1.2041109258e+00
1.2041150280e+00
1.2041176925e+00
1.2041193841e+00
1.2041204477e+00
1.2041211330e+00
1.2041216288e+00
1.2041220780e+00
1.2041225973e+00
1.2041232859e+00
1.2041242355e+00
1.2041255362e+00
1.2041272801e+00
1.2041295663e+00
1.2041325007e+00
1.2041362011e+00
1.2041407938e+00
1.2041464202e+00
1.2041532298e+00
1.2041613891e+00
1.2041710721e+00
1.2041824709e+00
1.2041957850e+00
1.2042112347e+00
1.2042290492e+00
1.2042494830e+00
1.2042728001e+00
1.2042992898e+00
1.2043292406e+00
1.2043629442e+00
1.2044006484e+00
1.2044425360e+00
1.2044886477e+00
1.2045388334e+00
1.2045926547e+00
1.2046493331e+00
1.2047076727e+00
1.2047660602e+00
1.2048224677e+00
1.2048745638e+00
1.2049198335e+00
1.2049558118e+00
1.2049802838e+00
1.2049915690e+00
1.2049886840e+00
1.2049715456e+00
1.2049409606e+00
1.2048986450e+00
1.2048469914e+00
1.2047889145e+00
1.2047274839e+00
1.2046657209e+00
1.2046062627e+00
1.2045512546e+00
1.2045021738e+00
1.2044598760e+00
1.2044245940e+00
1.2043960918e+00
1.2043737610e+00
1.2043567906e+00
1.2043442683e+00
1.2043352979e+00
1.2043290552e+00
1.2043248377e+00
1.2043220733e+00
1.2043203229e+00
1.2043192646e+00
1.2043188443e+00
1.1935402157e+00
1.1937443260e+00
1.1940057911e+00
1.1943849684e+00
1.1948683467e+00
1.1954391451e+00
1.1960781038e+00
1.1967648288e+00
1.1974786182e+00
1.1981997503e+00
1.1989100834e+00
1.1995940080e+00
1.2002386575e+00
1.2008343895e+00
1.2013745904e+00
1.2018557156e+00
1.2022767982e+00
1.2026391959e+00
1.2029459781e+00
1.2032015634e+00
1.2034111490e+00
1.2035803882e+00
1.2037149635e+00
1.2038203837e+00
1.2039017296e+00
1.2039635807e+00
1.2040099084e+00
1.2040441007e+00
1.2040689519e+00
1.2040867401e+00
1.2040992642e+00
1.2041079357e+00
1.2041138264e+00
1.2041177516e+00
1.2041203105e+00
1.2041219493e+00
1.2041229900e+00
1.2041236724e+00
1.2041241718e+00
1.2041246250e+00
1.2041251397e+00
1.2041258096e+00
1.2041267193e+00
1.2041279517e+00
1.2041295920e+00
1.2041317293e+00
1.2041344611e+00
1.2041378913e+00
1.2041421355e+00
1.2041473156e+00
1.2041535669e+00
1.2041610302e+00
1.2041698610e+00
1.2041802200e+00
1.2041922860e+00
1.2042062466e+00
1.2042223159e+00
1.2042407262e+00
1.2042617489e+00
1.2042856837e+00
1.2043128738e+00
1.2043436811e+00
1.2043784798e+00
1.2044175996e+00
1.2044612822e+00
1.2045095848e+00
1.2045623040e+00
1.2046188632e+00
1.2046782471e+00
1.2047389358e+00
1.2047989243e+00
1.2048557750e+00
1.2049067815e+00
1.2049491580e+00
1.2049803289e+00
1.2049981732e+00
1.2050013221e+00
1.2049892995e+00
1.2049626746e+00
1.2049229660e+00
1.2048725751e+00
1.2048144578e+00
1.2047519105e+00
1.2046881581e+00
1.2046261576e+00
1.2045682892e+00
1.2045163076e+00
1.2044712308e+00
1.2044334523e+00
1.2044027932e+00
1.2043786901e+00
1.2043603093e+00
1.2043467123e+00
1.2043369462e+00
1.2043301375e+00
1.2043255284e+00
1.2043225035e+00
1.2043205854e+00
1.2043194249e+00
1.2043189638e+00
1.1941843647e+00
1.1943818293e+00
1.1946280654e+00
1.1949847164e+00
1.1954391451e+00
1.1959754627e+00
1.1965757130e+00
1.1972206200e+00
1.1978908963e+00
1.1985678980e+00
1.1992347416e+00
1.1998766552e+00
1.2004816952e+00
1.2010407111e+00
1.2015476100e+00
1.2019989866e+00
1.2023940265e+00
1.2027339440e+00
1.2030216916e+00
1.2032613709e+00
1.2034579119e+00
1.2036165853e+00
1.2037427610e+00
1.2038415812e+00
1.2039178395e+00
1.2039758112e+00
1.2040192409e+00
1.2040512896e+00
1.2040745921e+00
1.2040912716e+00
1.2041030254e+00
1.2041111662e+00
1.2041167072e+00
1.2041204040e+00
1.2041228245e+00
1.2041243807e+00
1.2041253786e+00
1.2041260384e+00
1.2041265270e+00
1.2041269694e+00
1.2041274678e+00
1.2041281074e+00
1.2041289672e+00
1.2041301231e+00
1.2041316524e+00
1.2041336369e+00
1.2041361631e+00
1.2041393258e+00
1.2041432251e+00
1.2041479708e+00
1.2041536772e+00
1.2041604692e+00
1.2041684750e+00
1.2041778362e+00
1.2041887006e+00
1.2042012376e+00
1.2042156349e+00
1.2042321195e+00
1.2042509575e+00
1.2042724773e+00
1.2042970627e+00
1.2043251636e+00
1.2043572629e+00
1.2043938512e+00
1.2044353477e+00
1.2044820238e+00
1.2045338800e+00
1.2045905404e+00
1.2046511338e+00
1.2047142298e+00
1.2047778096e+00
1.2048393351e+00
1.2048958781e+00
1.2049443625e+00
1.2049818299e+00
1.2050057831e+00
1.2050144464e+00
1.2050070460e+00
1.2049838783e+00
1.2049463749e+00
1.2048968849e+00
1.2048385114e+00
1.2047746893e+00
1.2047089344e+00
1.2046444219e+00
1.2045838304e+00
1.2045290964e+00
1.2044814444e+00
1.2044413549e+00
1.2044087365e+00
1.2043830248e+00
1.2043633850e+00
1.2043488298e+00
1.2043383652e+00
1.2043310606e+00
1.2043261133e+00
1.2043228641e+00
1.2043208036e+00
1.2043195565e+00
1.2043190607e+00
1.1949070156e+00
1.1950963632e+00
1.1953251779e+00
1.1956563808e+00
1.1960781038e+00
1.1965757130e+00
1.1971324162e+00
1.1977304839e+00
1.1983518918e+00
1.1989795112e+00
1.1995975565e+00
1.2001924844e+00
1.2007531077e+00
1.2012710779e+00
1.2017406539e+00
1.2021587896e+00
1.2025246578e+00
1.2028394700e+00
1.2031059072e+00
1.2033278345e+00
1.2035097782e+00
1.2036566679e+00
1.2037734472e+00
1.2038649121e+00
1.2039354784e+00
1.2039891292e+00
1.2040293131e+00
1.2040589741e+00
1.2040805366e+00
1.2040959786e+00
1.2041068594e+00
1.2041144036e+00
1.2041195392e+00
1.2041229732e+00
1.2041252236e+00
1.2041266773e+00
1.2041276118e+00
1.2041282352e+00
1.2041286979e+00
1.2041291182e+00
1.2041295879e+00
1.2041301873e+00
1.2041309875e+00
1.2041320585e+00
1.2041334702e+00
1.2041352963e+00
1.2041376148e+00
1.2041405087e+00
1.2041440674e+00
1.2041483840e+00
1.2041535588e+00
1.2041596942e+00
1.2041669007e+00
1.2041752924e+00
1.2041849982e+00
1.2041961602e+00
1.2042089535e+00
1.2042235907e+00
1.2042403487e+00
1.2042595748e+00
1.2042817106e+00
1.2043072819e+00
1.2043368957e+00
1.2043711874e+00
1.2044107618e+00
1.2044560813e+00
1.2045073481e+00
1.2045643567e+00
1.2046263682e+00
1.2046920080e+00
1.2047592326e+00
1.2048253729e+00
1.2048872856e+00
1.2049415834e+00
1.2049849644e+00
1.2050145404e+00
1.2050282077e+00
1.2050248728e+00
1.2050046672e+00
1.2049688898e+00
1.2049199549e+00
1.2048610337e+00
1.2047958065e+00
1.2047279753e+00
1.2046610171e+00
1.2045977984e+00
1.2045404979e+00
1.2044904512e+00
1.2044482678e+00
1.2044138770e+00
1.2043867427e+00
1.2043659916e+00
1.2043506084e+00
1.2043395418e+00
1.2043318185e+00
1.2043265868e+00
1.2043231528e+00
1.2043209754e+00
1.2043196586e+00
1.2043191341e+00
1.1956846305e+00
1.1958648125e+00
1.1960747551e+00
1.1963783590e+00
1.1967648288e+00
1.1972206200e+00
1.1977304839e+00
1.1982780388e+00
1.1988469367e+00
1.1994213523e+00
1.1999869929e+00
1.2005313324e+00
1.2010442773e+00
1.2015180787e+00
1.2019476077e+00
1.2023299913e+00
1.2026645731e+00
1.2029523964e+00
1.2031959905e+00
1.2033988422e+00
1.2035651481e+00
1.2036993805e+00
1.2038061002e+00
1.2038896656e+00
1.2039541426e+00
1.2040031514e+00
1.2040398647e+00
1.2040669569e+00
1.2040866585e+00
1.2041007640e+00
1.2041107092e+00
1.2041176023e+00
1.2041223001e+00
1.2041254398e+00
1.2041275016e+00
1.2041288325e+00
1.2041296913e+00
1.2041302631e+00
1.2041306895e+00
1.2041310752e+00
1.2041315069e+00
1.2041320555e+00
1.2041327875e+00
1.2041337651e+00
1.2041350522e+00
1.2041367144e+00
1.2041388208e+00
1.2041414448e+00
1.2041446627e+00
1.2041485553e+00
1.2041532045e+00
1.2041586968e+00
1.2041651191e+00
1.2041725669e+00
1.2041811431e+00
1.2041909739e+00
1.2042022150e+00
1.2042150781e+00
1.2042298443e+00
1.2042468956e+00
1.2042667239e+00
1.2042899469e+00
1.2043172855e+00
1.2043495301e+00
1.2043874559e+00
1.2044317154e+00
1.2044826895e+00
1.2045403283e+00
1.2046039967e+00
1.2046723530e+00
1.2047433003e+00
1.2048140244e+00
1.2048811455e+00
1.2049409784e+00
1.2049898668e+00
1.2050245870e+00
1.2050426957e+00
1.2050428766e+00
1.2050250663e+00
1.2049905526e+00
1.2049417503e+00
1.2048820212e+00
1.2048151910e+00
1.2047452519e+00
1.2046758632e+00
1.2046101585e+00
1.2045504439e+00
1.2044982224e+00
1.2044541433e+00
1.2044181959e+00
1.2043898159e+00
1.2043681191e+00
1.2043520341e+00
1.2043404716e+00
1.2043324052e+00
1.2043269473e+00
1.2043233672e+00
1.2043211003e+00
1.2043197305e+00
1.2043191841e+00
1.1964935624e+00
1.1966639969e+00
1.1968541528e+00
1.1971289902e+00
1.1974786182e+00
1.1978908963e+00
1.1983518918e+00
1.1988469367e+00
1.1993611038e+00
1.1998802446e+00
1.2003913020e+00
1.2008831072e+00
1.2013464193e+00
1.2017743717e+00
1.2021622329e+00
1.2025075200e+00
1.2028095644e+00
1.2030693968e+00
1.2032892449e+00
1.2034723234e+00
1.2036223797e+00
1.2037434996e+00
1.2038397691e+00
1.2039151564e+00
1.2039733076e+00
1.2040175138e+00
1.2040506198e+00
1.2040750557e+00
1.2040928194e+00
1.2041055423e+00
1.2041145081e+00
1.2041207261e+00
1.2041249596e+00
1.2041277911e+00
1.2041296464e+00
1.2041308446e+00
1.2041316135e+00
1.2041321253e+00
1.2041325034e+00
1.2041328461e+00
1.2041332288e+00
1.2041337183e+00
1.2041343725e+00
1.2041352490e+00
1.2041364039e+00
1.2041378959e+00
1.2041397855e+00
1.2041421358e+00
1.2041450122e+00
1.2041484806e+00
1.2041526089e+00
1.2041574635e+00
1.2041631141e+00
1.2041696325e+00
1.2041771043e+00
1.2041856343e+00
1.2041953703e+00
1.2042065183e+00
1.2042193777e+00
1.2042343611e+00
1.2042520261e+00
1.2042730772e+00
1.2042983613e+00
1.2043288154e+00
1.2043653869e+00
1.2044089033e+00
1.2044599100e+00
1.2045184904e+00
1.2045840843e+00
1.2046553575e+00
1.2047301288e+00
1.2048054182e+00
1.2048775979e+00
1.2049426753e+00
1.2049966674e+00
1.2050360117e+00
1.2050580021e+00
1.2050610849e+00
1.2050451179e+00
1.2050113307e+00
1.2049622709e+00
1.2049014022e+00
1.2048328185e+00
1.2047606810e+00
1.2046889308e+00
1.2046208386e+00
1.2045589114e+00
1.2045047075e+00
1.2044589681e+00
1.2044216637e+00
1.2043922387e+00
1.2043697533e+00
1.2043531055e+00
1.2043411488e+00
1.2043328210e+00
1.2043271929e+00
1.2043235080e+00
1.2043211780e+00
1.2043197727e+00
1.2043192107e+00
1.1973112491e+00
1.1974716367e+00
1.1976417620e+00
1.1978873815e+00
1.1981997503e+00
1.1985678980e+00
1.1989795112e+00
1.1994213523e+00
1.1998802446e+00
1.2003434193e+00
1.2007993756e+00
1.2012380203e+00
1.2016512489e+00
1.2020328291e+00
1.2023786612e+00
1.2026864461e+00
1.2029556853e+00
1.2031872333e+00
1.2033831512e+00
1.2035462572e+00
1.2036799469e+00
1.2037878264e+00
1.2038735770e+00
1.2039407079e+00
1.2039924960e+00
1.2040318529e+00
1.2040613327e+00
1.2040830839e+00
1.2040989003e+00
1.2041102221e+00
1.2041182032e+00
1.2041237320e+00
1.2041274969e+00
1.2041300083e+00
1.2041316523e+00
1.2041327066e+00
1.2041333799e+00
1.2041338207e+00
1.2041341436e+00
1.2041344327e+00
1.2041347590e+00
1.2041351794e+00
1.2041357481e+00
1.2041365146e+00
1.2041375300e+00
1.2041388446e+00
1.2041405112e+00
1.2041425829e+00
1.2041451134e+00
1.2041481562e+00
1.2041517623e+00
1.2041559824e+00
1.2041608652e+00
1.2041664651e+00
1.2041728465e+00
1.2041801018e+00
1.2041883674e+00
1.2041978559e+00
1.2042088828e+00
1.2042219057e+00
1.2042375465e+00
1.2042566099e+00
1.2042800657e+00
1.2043090027e+00
1.2043445324e+00
1.2043876465e+00
1.2044390395e+00
1.2044988982e+00
1.2045667159e+00
1.2046411250e+00
1.2047198402e+00
1.2047996827e+00
1.2048767675e+00
1.2049467942e+00
1.2050054549e+00
1.2050488986e+00
1.2050741550e+00
1.2050795339e+00
1.2050647873e+00
1.2050312197e+00
1.2049814397e+00
1.2049191506e+00
1.2048485989e+00
1.2047742346e+00
1.2047001414e+00
1.2046298200e+00
1.2045658456e+00
1.2045098993e+00
1.2044627113e+00
1.2044242812e+00
1.2043939973e+00
1.2043708979e+00
1.2043538183e+00
1.2043415775e+00
1.2043330656e+00
1.2043273265e+00
1.2043235759e+00
1.2043212101e+00
1.2043197859e+00
1.2043192151e+00
1.1981170798e+00
1.1982674722e+00
1.1984177572e+00
1.1986345665e+00
1.1989100834e+00
1.1992347416e+00
1.1995975565e+00
1.1999869929e+00
1.2003913020e+00
1.2007993756e+00
1.2012009517e+00
1.2015872784e+00
1.2019511044e+00
1.2022870655e+00
1.2025914598e+00
1.2028623671e+00
1.2030992770e+00
1.2033030241e+00
1.2034753689e+00
1.2036188538e+00
1.2037364269e+00
1.2038313065e+00
1.2039067015e+00
1.2039657314e+00
1.2040112555e+00
1.2040458576e+00
1.2040717661e+00
1.2040908866e+00
1.2041047822e+00
1.2041147314e+00
1.2041217371e+00
1.2041265900e+00
1.2041298859e+00
1.2041320812e+00
1.2041335082e+00
1.2041344174e+00
1.2041349867e+00
1.2041353521e+00
1.2041356102e+00
1.2041358396e+00
1.2041360994e+00
1.2041364434e+00
1.2041369170e+00
1.2041375659e+00
1.2041384329e+00
1.2041395626e+00
1.2041409986e+00
1.2041427849e+00
1.2041449638e+00
1.2041475751e+00
1.2041506554e+00
1.2041542374e+00
1.2041583529e+00
1.2041630363e+00
1.2041683370e+00
1.2041743333e+00
1.2041811597e+00
1.2041890348e+00
1.2041983028e+00
1.2042094679e+00
1.2042232293e+00
1.2042404935e+00
1.2042623612e+00
1.2042900712e+00
1.2043248928e+00
1.2043679733e+00
1.2044201290e+00
1.2044816342e+00
1.2045519897e+00
1.2046297770e+00
1.2047125578e+00
1.2047969450e+00
1.2048787697e+00
1.2049534279e+00
1.2050163073e+00
1.2050632773e+00
1.2050911817e+00
1.2050981856e+00
1.2050840597e+00
1.2050501334e+00
1.2049992214e+00
1.2049351641e+00
1.2048624986e+00
1.2047858229e+00
1.2047094765e+00
1.2046370408e+00
1.2045712444e+00
1.2045137643e+00
1.2044653810e+00
1.2044260353e+00
1.2043951028e+00
1.2043715510e+00
1.2043541820e+00
1.2043417593e+00
1.2043331451e+00
1.2043273503e+00
1.2043235743e+00
1.2043211981e+00
1.2043197718e+00
1.2043191984e+00
1.1988932365e+00
1.1990338694e+00
1.1991650366e+00
1.1993539894e+00
1.1995940080e+00
1.1998766552e+00
1.2001924844e+00
1.2005313324e+00
1.2008831072e+00
1.2012380203e+00
1.2015872784e+00
1.2019231559e+00
1.2022394714e+00
1.2025314646e+00
1.2027960245e+00
1.2030314050e+00
1.2032372501e+00
1.2034142262e+00
1.2035639309e+00
1.2036885289e+00
1.2037906317e+00
1.2038730019e+00
1.2039384628e+00
1.2039896983e+00
1.2040292176e+00
1.2040592443e+00
1.2040817316e+00
1.2040983184e+00
1.2041103751e+00
1.2041189988e+00
1.2041250705e+00
1.2041292662e+00
1.2041321116e+00
1.2041339946e+00
1.2041352107e+00
1.2041359707e+00
1.2041364354e+00
1.2041367177e+00
1.2041369067e+00
1.2041370670e+00
1.2041372541e+00
1.2041375119e+00
1.2041378829e+00
1.2041384043e+00
1.2041391149e+00
1.2041400503e+00
1.2041412473e+00
1.2041427393e+00
1.2041445578e+00
1.2041467294e+00
1.2041492753e+00
1.2041522123e+00
1.2041555538e+00
1.2041593184e+00
1.2041635397e+00
1.2041682886e+00
1.2041736986e+00
1.2041800048e+00
1.2041875834e+00
1.2041969972e+00
1.2042090281e+00
1.2042246937e+00
1.2042452293e+00
1.2042720218e+00
1.2043064965e+00
1.2043499337e+00
1.2044032616e+00
1.2044667960e+00
1.2045400313e+00
1.2046214384e+00
1.2047084169e+00
1.2047973225e+00