# vtk DataFile Version 2.0
Blank
ASCII
DATASET STRUCTURED_GRID
DIMENSIONS 101 101 2
POINTS 20402 float
0.0000000000e+00 0.0000000000e+00 0.0000000000e+00
1.0000000000e-02 0.0000000000e+00 0.0000000000e+00
2.0000000000e-02 0.0000000000e+00 0.0000000000e+00
3.0000000000e-02 0.0000000000e+00 0.0000000000e+00
4.0000000000e-02 0.0000000000e+00 0.0000000000e+00
5.0000000000e-02 0.0000000000e+00 0.0000000000e+00
6.0000000000e-02 0.0000000000e+00 0.0000000000e+00
7.0000000000e-02 0.0000000000e+00 0.0000000000e+00
8.0000000000e-02 0.0000000000e+00 0.0000000000e+00
9.0000000000e-02 0.0000000000e+00 0.0000000000e+00
1.0000000000e-01 0.0000000000e+00 0.0000000000e+00
1.1000000000e-01 0.0000000000e+00 0.0000000000e+00
1.2000000000e-01 0.0000000000e+00 0.0000000000e+00
1.3000000000e-01 0.0000000000e+00 0.0000000000e+00
1.4000000000e-01 0.0000000000e+00 0.0000000000e+00
1.5000000000e-01 0.0000000000e+00 0.0000000000e+00
1.6000000000e-01 0.0000000000e+00 0.0000000000e+00
1.7000000000e-01 0.0000000000e+00 0.0000000000e+00
1.8000000000e-01 0.0000000000e+00 0.0000000000e+00
1.9000000000e-01 0.0000000000e+00 0.0000000000e+00
2.0000000000e-01 0.0000000000e+00 0.0000000000e+00
2.1000000000e-01 0.0000000000e+00 0.0000000000e+00
2.2000000000e-01 0.0000000000e+00 0.0000000000e+00
2.3000000000e-01 0.0000000000e+00 0.0000000000e+00
2.4000000000e-01 0.0000000000e+00 0.0000000000e+00
2.5000000000e-01 0.0000000000e+00 0.0000000000e+00
2.6000000000e-01 0.0000000000e+00 0.0000000000e+00
2.7000000000e-01 0.0000000000e+00 0.0000000000e+00
2.8000000000e-01 0.0000000000e+00 0.0000000000e+00
2.9000000000e-01 0.0000000000e+00 0.0000000000e+00
3.0000000000e-01 0.0000000000e+00 0.0000000000e+00
3.1000000000e-01 0.0000000000e+00 0.0000000000e+00
3.2000000000e-01 0.0000000000e+00 0.0000000000e+00
3.3000000000e-01 0.0000000000e+00 0.0000000000e+00
3.4000000000e-01 0.0000000000e+00 0.0000000000e+00
3.5000000000e-01 0.0000000000e+00 0.0000000000e+00
3.6000000000e-01 0.0000000000e+00 0.0000000000e+00
3.7000000000e-01 0.0000000000e+00 0.0000000000e+00
3.8000000000e-01 0.0000000000e+00 0.0000000000e+00
3.9000000000e-01 0.0000000000e+00 0.0000000000e+00
4.0000000000e-01 0.0000000000e+00 0.0000000000e+00
4.1000000000e-01 0.0000000000e+00 0.0000000000e+00
4.2000000000e-01 0.0000000000e+00 0.0000000000e+00
4.3000000000e-01 0.0000000000e+00 0.0000000000e+00
4.4000000000e-01 0.0000000000e+00 0.0000000000e+00
4.5000000000e-01 0.0000000000e+00 0.0000000000e+00
4.6000000000e-01 0.0000000000e+00 0.0000000000e+00
4.7000000000e-01 0.0000000000e+00 0.0000000000e+00
4.8000000000e-01 0.0000000000e+00 0.0000000000e+00
4.9000000000e-01 0.0000000000e+00 0.0000000000e+00
5.0000000000e-01 0.0000000000e+00 0.0000000000e+00
5.1000000000e-01 0.0000000000e+00 0.0000000000e+00
5.2000000000e-01 0.0000000000e+00 0.0000000000e+00
5.3000000000e-01 0.0000000000e+00 0.0000000000e+00
5.4000000000e-01 0.0000000000e+00 0.0000000000e+00
5.5000000000e-01 0.0000000000e+00 0.0000000000e+00
5.6000000000e-01 0.0000000000e+00 0.0000000000e+00
5.7000000000e-01 0.0000000000e+00 0.0000000000e+00
5.8000000000e-01 0.0000000000e+00 0.0000000000e+00
5.9000000000e-01 0.0000000000e+00 0.0000000000e+00
6.0000000000e-01 0.0000000000e+00 0.0000000000e+00
6.1000000000e-01 0.0000000000e+00 0.0000000000e+00
6.2000000000e-01 0.0000000000e+00 0.0000000000e+00
6.3000000000e-01 0.0000000000e+00 0.0000000000e+00
6.4000000000e-01 0.0000000000e+00 0.0000000000e+00
6.5000000000e-01 0.0000000000e+00 0.0000000000e+00
6.6000000000e-01 0.0000000000e+00 0.0000000000e+00
6.7000000000e-01 0.0000000000e+00 0.0000000000e+00
6.8000000000e-01 0.0000000000e+00 0.0000000000e+00
6.9000000000e-01 0.0000000000e+00 0.0000000000e+00
7.0000000000e-01 0.0000000000e+00 0.0000000000e+00
7.1000000000e-01 0.0000000000e+00 0.0000000000e+00
7.2000000000e-01 0.0000000000e+00 0.0000000000e+00
7.3000000000e-01 0.0000000000e+00 0.0000000000e+00
7.4000000000e-01 0.0000000000e+00 0.0000000000e+00
7.5000000000e-01 0.0000000000e+00 0.0000000000e+00
7.6000000000e-01 0.0000000000e+00 0.0000000000e+00
7.7000000000e-01 0.0000000000e+00 0.0000000000e+00
7.8000000000e-01 0.0000000000e+00 0.0000000000e+00
7.9000000000e-01 0.0000000000e+00 0.0000000000e+00
8.0000000000e-01 0.0000000000e+00 0.0000000000e+00
8.1000000000e-01 0.0000000000e+00 0.0000000000e+00
8.2000000000e-01 0.0000000000e+00 0.0000000000e+00
8.3000000000e-01 0.0000000000e+00 0.0000000000e+00
8.4000000000e-01 0.0000000000e+00 0.0000000000e+00
8.5000000000e-01 0.0000000000e+00 0.0000000000e+00
8.6000000000e-01 0.0000000000e+00 0.0000000000e+00
8.7000000000e-01 0.0000000000e+00 0.0000000000e+00
8.8000000000e-01 0.0000000000e+00 0.0000000000e+00
8.9000000000e-01 0.0000000000e+00 0.0000000000e+00
9.0000000000e-01 0.0000000000e+00 0.0000000000e+00
9.1000000000e-01 0.0000000000e+00 0.0000000000e+00
9.2000000000e-01 0.0000000000e+00 0.0000000000e+00
9.3000000000e-01 0.0000000000e+00 0.0000000000e+00
9.4000000000e-01 0.0000000000e+00 0.0000000000e+00
9.5000000000e-01 0.0000000000e+00 0.0000000000e+00
9.6000000000e-01 0.0000000000e+00 0.0000000000e+00
9.7000000000e-01 0.0000000000e+00 0.0000000000e+00
9.8000000000e-01 0.0000000000e+00 0.0000000000e+00
9.9000000000e-01 0.0000000000e+00 0.0000000000e+00
1.0000000000e+00 0.0000000000e+00 0.0000000000e+00
0.0000000000e+00 1.0000000000e-02 0.0000000000e+00
1.0000000000e-02 1.0000000000e-02 0.0000000000e+00
2.0000000000e-02 1.0000000000e-02 0.0000000000e+00
3.0000000000e-02 1.0000000000e-02 0.0000000000e+00
4.0000000000e-02 1.0000000000e-02 0.0000000000e+00
5.0000000000e-02 1.0000000000e-02 0.0000000000e+00
6.0000000000e-02 1.0000000000e-02 0.0000000000e+00
7.0000000000e-02 1.0000000000e-02 0.0000000000e+00
8.0000000000e-02 1.0000000000e-02 0.0000000000e+00
9.0000000000e-02 1.0000000000e-02 0.0000000000e+00
1.0000000000e-01 1.0000000000e-02 0.0000000000e+00
1.1000000000e-01 1.0000000000e-02 0.0000000000e+00
1.2000000000e-01 1.0000000000e-02 0.0000000000e+00
1.3000000000e-01 1.0000000000e-02 0.0000000000e+00
1.4000000000e-01 1.0000000000e-02 0.0000000000e+00
1.5000000000e-01 1.0000000000e-02 0.0000000000e+00
1.6000000000e-01 1.0000000000e-02 0.0000000000e+00
1.7000000000e-01 1.0000000000e-02 0.0000000000e+00
1.8000000000e-01 1.0000000000e-02 0.0000000000e+00
1.9000000000e-01 1.0000000000e-02 0.0000000000e+00
2.0000000000e-01 1.0000000000e-02 0.0000000000e+00
2.1000000000e-01 1.0000000000e-02 0.0000000000e+00
2.2000000000e-01 1.0000000000e-02 0.0000000000e+00
2.3000000000e-01 1.0000000000e-02 0.0000000000e+00
2.4000000000e-01 1.0000000000e-02 0.0000000000e+00
2.5000000000e-01 1.0000000000e-02 0.0000000000e+00
2.6000000000e-01 1.0000000000e-02 0.0000000000e+00
2.7000000000e-01 1.0000000000e-02 0.0000000000e+00
2.8000000000e-01 1.0000000000e-02 0.0000000000e+00
2.9000000000e-01 1.0000000000e-02 0.0000000000e+00
3.0000000000e-01 1.0000000000e-02 0.0000000000e+00
3.1000000000e-01 1.0000000000e-02 0.0000000000e+00
3.2000000000e-01 1.0000000000e-02 0.0000000000e+00
3.3000000000e-01 1.0000000000e-02 0.0000000000e+00
3.4000000000e-01 1.0000000000e-02 0.0000000000e+00
3.5000000000e-01 1.0000000000e-02 0.0000000000e+00
3.6000000000e-01 1.0000000000e-02 0.0000000000e+00
3.7000000000e-01 1.0000000000e-02 0.0000000000e+00
3.8000000000e-01 1.0000000000e-02 0.0000000000e+00
3.9000000000e-01 1.0000000000e-02 0.0000000000e+00
4.0000000000e-01 1.0000000000e-02 0.0000000000e+00
4.1000000000e-01 1.0000000000e-02 0.0000000000e+00
4.2000000000e-01 1.0000000000e-02 0.0000000000e+00
4.3000000000e-01 1.0000000000e-02 0.0000000000e+00
4.4000000000e-01 1.0000000000e-02 0.0000000000e+00
4.5000000000e-01 1.0000000000e-02 0.0000000000e+00
4.6000000000e-01 1.0000000000e-02 0.0000000000e+00
4.7000000000e-01 1.0000000000e-02 0.0000000000e+00
4.8000000000e-01 1.0000000000e-02 0.0000000000e+00
4.9000000000e-01 1.0000000000e-02 0.0000000000e+00
5.0000000000e-01 1.0000000000e-02 0.0000000000e+00
5.1000000000e-01 1.0000000000e-02 0.0000000000e+00
5.2000000000e-01 1.0000000000e-02 0.0000000000e+00
5.3000000000e-01 1.0000000000e-02 0.0000000000e+00
5.4000000000e-01 1.0000000000e-02 0.0000000000e+00
5.5000000000e-01 1.0000000000e-02 0.0000000000e+00
5.6000000000e-01 1.0000000000e-02 0.0000000000e+00
5.7000000000e-01 1.0000000000e-02 0.0000000000e+00
5.8000000000e-01 1.0000000000e-02 0.0000000000e+00
5.9000000000e-01 1.0000000000e-02 0.0000000000e+00
6.0000000000e-01 1.0000000000e-02 0.0000000000e+00
6.1000000000e-01 1.0000000000e-02 0.0000000000e+00
6.2000000000e-01 1.0000000000e-02 0.0000000000e+00
6.3000000000e-01 1.0000000000e-02 0.0000000000e+00
6.4000000000e-01 1.0000000000e-02 0.0000000000e+00
6.5000000000e-01 1.0000000000e-02 0.0000000000e+00
6.6000000000e-01 1.0000000000e-02 0.0000000000e+00
6.7000000000e-01 1.0000000000e-02 0.0000000000e+00
6.8000000000e-01 1.0000000000e-02 0.0000000000e+00
6.9000000000e-01 1.0000000000e-02 0.0000000000e+00
7.0000000000e-01 1.0000000000e-02 0.0000000000e+00
7.1000000000e-01 1.0000000000e-02 0.0000000000e+00
7.2000000000e-01 1.0000000000e-02 0.0000000000e+00
7.3000000000e-01 1.0000000000e-02 0.0000000000e+00
7.4000000000e-01 1.0000000000e-02 0.0000000000e+00
7.5000000000e-01 1.0000000000e-02 0.0000000000e+00
7.6000000000e-01 1.0000000000e-02 0.0000000000e+00
7.7000000000e-01 1.0000000000e-02 0.0000000000e+00
7.8000000000e-01 1.0000000000e-02 0.0000000000e+00
7.9000000000e-01 1.0000000000e-02 0.0000000000e+00
8.0000000000e-01 1.0000000000e-02 0.0000000000e+00
8.1000000000e-01 1.0000000000e-02 0.0000000000e+00
8.2000000000e-01 1.0000000000e-02 0.0000000000e+00
8.3000000000e-01 1.0000000000e-02 0.0000000000e+00
8.4000000000e-01 1.0000000000e-02 0.0000000000e+00
8.5000000000e-01 1.0000000000e-02 0.0000000000e+00
8.6000000000e-01 1.0000000000e-02 0.0000000000e+00
8.7000000000e-01 1.0000000000e-02 0.0000000000e+00
8.8000000000e-01 1.0000000000e-02 0.0000000000e+00
8.9000000000e-01 1.0000000000e-02 0.0000000000e+00
9.0000000000e-01 1.0000000000e-02 0.0000000000e+00
9.1000000000e-01 1.0000000000e-02 0.0000000000e+00
9.2000000000e-01 1.0000000000e-02 0.0000000000e+00
[...]
CELL_DATA 10000

SCALARS massDensity float
LOOKUP_TABLE default
1.1908623545e+00
1.1911023019e+00
1.1914454758e+00
1.1919518004e+00
1.1925999508e+00
1.1933641679e+00
1.1942157525e+00
1.1951248297e+00
1.1960618379e+00
1.1969991221e+00
1.1979120365e+00
1.1987799706e+00
1.1995867864e+00
1.2003211184e+00
1.2009761403e+00
1.2015492540e+00
1.2020414048e+00
1.2024564403e+00
1.2028002797e+00
1.2030802398e+00
1.2033043134e+00
1.2034806635e+00
1.2036171436e+00
1.2037210302e+00
1.2037987940e+00
1.2038560407e+00
1.2038974684e+00
1.2039269378e+00
1.2039475310e+00
1.2039616747e+00
1.2039712313e+00
1.2039776207e+00
1.2039819050e+00
1.2039848842e+00
1.2039871585e+00
1.2039891929e+00
1.2039913583e+00
1.2039939697e+00
1.2039973120e+00
1.2040016591e+00
1.2040072921e+00
1.2040145058e+00
1.2040236229e+00
1.2040349923e+00
1.2040490027e+00
1.2040660736e+00
1.2040866679e+00
1.2041112761e+00
1.2041404253e+00
1.2041746518e+00
1.2042145030e+00
1.2042604911e+00
1.2043130788e+00
1.2043726072e+00
1.2044392563e+00
1.2045129432e+00
1.2045932635e+00
1.2046793729e+00
1.2047699384e+00
1.2048630475e+00
1.2049562290e+00
1.2050464556e+00
1.2051303003e+00
1.2052040816e+00
1.2052641738e+00
1.2053072664e+00
1.2053307514e+00
1.2053329656e+00
1.2053134895e+00
1.2052731945e+00
1.2052142943e+00
1.2051400966e+00
1.2050547800e+00
1.2049629243e+00
1.2048691612e+00
1.2047776995e+00
1.2046920728e+00
1.2046148684e+00
1.2045477051e+00
1.2044912273e+00
1.2044452824e+00
1.2044090837e+00
1.2043814527e+00
1.2043610041e+00
1.2043463307e+00
1.2043361164e+00
1.2043292192e+00
1.2043246999e+00
1.2043218270e+00
1.2043200548e+00
1.2043189941e+00
1.2043183782e+00
1.2043180313e+00
1.2043178417e+00
1.2043177412e+00
1.2043176896e+00
1.2043176639e+00
1.2043176515e+00
1.2043176457e+00
1.2043176435e+00
1.1911023019e+00
1.1913535415e+00
1.1916989250e+00
1.1922026212e+00
1.1928446170e+00
1.1936000484e+00
1.1944410696e+00
1.1953383552e+00
1.1962629611e+00
1.1971875977e+00
1.1980880759e+00
1.1989440126e+00
1.1997395792e+00
1.2004635152e+00
1.2011091677e+00
1.2016739404e+00
1.2021588402e+00
1.2025676423e+00
1.2029062499e+00
1.2031818659e+00
1.2034024246e+00
1.2035759635e+00
1.2037102631e+00
1.2038124833e+00
1.2038890262e+00
1.2039453993e+00
1.2039862441e+00
1.2040153441e+00
1.2040357369e+00
1.2040497886e+00
1.2040593247e+00
1.2040657149e+00
1.2040699861e+00
1.2040728913e+00
1.2040749906e+00
1.2040766990e+00
1.2040783367e+00
1.2040801590e+00
1.2040823841e+00
1.2040852118e+00
1.2040888350e+00
1.2040934545e+00
1.2040992790e+00
1.2041065390e+00
1.2041154800e+00
1.2041263765e+00
1.2041395194e+00
1.2041552317e+00
1.2041738496e+00
1.2041957393e+00
1.2042212698e+00
1.2042508275e+00
1.2042847768e+00
1.2043234646e+00
1.2043671597e+00
1.2044160390e+00
1.2044700988e+00
1.2045291192e+00
1.2045925538e+00
1.2046594926e+00
1.2047285643e+00
1.2047979493e+00
1.2048653545e+00
1.2049281412e+00
1.2049834219e+00
1.2050283291e+00
1.2050602146e+00
1.2050769965e+00
1.2050773437e+00
1.2050609540e+00
1.2050285634e+00
1.2049820123e+00
1.2049239946e+00
1.2048578947e+00
1.2047873528e+00
1.2047160101e+00
1.2046470900e+00
1.2045832405e+00
1.2045263067e+00
1.2044773657e+00
1.2044367246e+00
1.2044041020e+00
1.2043787555e+00
1.2043596907e+00
1.2043457954e+00
1.2043359825e+00
1.2043292634e+00
1.2043248036e+00
1.2043219326e+00
1.2043201407e+00
1.2043190558e+00
1.2043184191e+00
1.2043180566e+00
1.2043178566e+00
1.2043177496e+00
1.2043176941e+00
1.2043176662e+00
1.2043176526e+00
1.2043176463e+00
1.2043176438e+00
1.1914454758e+00
1.1916989250e+00
1.1920377219e+00
1.1925295745e+00
1.1931552356e+00
1.1938908577e+00
1.1947093915e+00
1.1955825267e+00
1.1964820414e+00
1.1973815442e+00
1.1982574082e+00
1.1990899311e+00
1.1998636239e+00
1.2005676399e+00
1.2011954332e+00
1.2017445682e+00
1.2022159676e+00
1.2026133762e+00
1.2029424926e+00
1.2032103786e+00
1.2034247171e+00
1.2035933661e+00
1.2037238647e+00
1.2038232048e+00
1.2038975886e+00
1.2039523921e+00
1.2039921086e+00
1.2040204305e+00
1.2040402950e+00
1.2040540115e+00
1.2040633416e+00
1.2040696224e+00
1.2040738414e+00
1.2040767329e+00
1.2040788327e+00
1.2040805428e+00
1.2040821670e+00
1.2040839486e+00
1.2040860919e+00
1.2040887817e+00
1.2040921969e+00
1.2040965173e+00
1.2041019346e+00
1.2041086501e+00
1.2041168868e+00
1.2041268803e+00
1.2041388919e+00
1.2041531959e+00
1.2041700949e+00
1.2041899026e+00
1.2042129622e+00
1.2042396232e+00
1.2042702587e+00
1.2043052303e+00
1.2043448929e+00
1.2043895352e+00
1.2044393579e+00
1.2044943770e+00
1.2045543715e+00
1.2046187579e+00
1.2046865347e+00
1.2047561791e+00
1.2048256559e+00
1.2048924153e+00
1.2049535462e+00
1.2050059264e+00
1.2050465370e+00
1.2050727176e+00
1.2050825419e+00
1.2050750146e+00
1.2050503244e+00
1.2050097984e+00
1.2049558947e+00
1.2048918600e+00
1.2048214955e+00
1.2047486613e+00
1.2046770080e+00
1.2046095670e+00
1.2045486427e+00
1.2044956446e+00
1.2044511929e+00
1.2044151739e+00
1.2043869647e+00
1.2043655829e+00
1.2043498968e+00
1.2043387482e+00
1.2043310730e+00
1.2043259510e+00
1.2043226386e+00
1.2043205617e+00
1.2043192995e+00
1.2043185558e+00
1.2043181310e+00
1.2043178958e+00
1.2043177696e+00
1.2043177040e+00
1.2043176709e+00
1.2043176548e+00
1.2043176473e+00
1.2043176444e+00
1.1919518004e+00
1.1922026212e+00
1.1925295745e+00
1.1930028612e+00
1.1936041794e+00
1.1943106033e+00
1.1950963982e+00
1.1959343111e+00
1.1967974582e+00
1.1976603986e+00
1.1985006318e+00
1.1992991372e+00
1.2000411994e+00
1.2007163124e+00
1.2013183171e+00
1.2018447991e+00
1.2022967399e+00
1.2026776729e+00
1.2029931377e+00
1.2032498631e+00
1.2034552716e+00
1.2036168649e+00
1.2037419110e+00
1.2038370870e+00
1.2039083667e+00
1.2039608819e+00
1.2039989590e+00
1.2040261197e+00
1.2040451921e+00
1.2040583752e+00
1.2040673662e+00
1.2040734347e+00
1.2040775327e+00
1.2040803544e+00
1.2040824157e+00
1.2040840944e+00
1.2040856806e+00
1.2040874010e+00
1.2040894470e+00
1.2040919892e+00
1.2040951901e+00
1.2040992142e+00
1.2041042306e+00
1.2041104218e+00
1.2041179793e+00
1.2041271137e+00
1.2041380456e+00
1.2041510182e+00
1.2041662857e+00
1.2041841313e+00
1.2042048540e+00
1.2042287915e+00
1.2042563036e+00
1.2042877928e+00
1.2043236730e+00
1.2043643694e+00
1.2044102517e+00
1.2044615923e+00
1.2045184487e+00
1.2045805784e+00
1.2046472924e+00
1.2047173757e+00
1.2047889887e+00
1.2048596900e+00
1.2049264865e+00
1.2049860462e+00
1.2050349323e+00
1.2050699895e+00
1.2050886577e+00
1.2050893698e+00
1.2050717240e+00
1.2050366747e+00
1.2049863783e+00
1.2049240775e+00
1.2048536387e+00
1.2047792474e+00
1.2047048650e+00
1.2046339796e+00
1.2045692415e+00
1.2045124389e+00
1.2044644155e+00
1.2044252558e+00
1.2043944001e+00
1.2043709000e+00
1.2043535779e+00
1.2043412209e+00
1.2043326817e+00
1.2043269669e+00
1.2043232600e+00
1.2043209307e+00
1.2043195117e+00
1.2043186742e+00
1.2043181950e+00
1.2043179294e+00
1.2043177867e+00
1.2043177124e+00
1.2043176749e+00
1.2043176567e+00
1.2043176481e+00
1.2043176448e+00
1.1925999508e+00
1.1928446170e+00
1.1931552356e+00
1.1936041794e+00
1.1941739604e+00
1.1948430426e+00
1.1955869381e+00
1.1963800584e+00
1.1971968160e+00
1.1980133343e+00
1.1988081772e+00
1.1995635255e+00
1.2002653294e+00
1.2009038014e+00
1.2014730132e+00
1.2019708040e+00
1.2023980255e+00
1.2027581146e+00
1.2030562538e+00
1.2032988766e+00
1.2034929597e+00
1.2036456467e+00
1.2037637771e+00
1.2038536984e+00
1.2039210324e+00
1.2039706547e+00
1.2040066339e+00
1.2040323152e+00
1.2040503552e+00
1.2040628438e+00
1.2040713714e+00
1.2040771460e+00
1.2040810566e+00
1.2040837645e+00
1.2040857490e+00
1.2040873694e+00
1.2040888935e+00
1.2040905349e+00
1.2040924688e+00
1.2040948525e+00
1.2040978337e+00
1.2041015594e+00
1.2041061819e+00
1.2041118593e+00
1.2041187617e+00
1.2041270663e+00
1.2041369662e+00
1.2041486625e+00
1.2041623787e+00
1.2041783534e+00
1.2041968628e+00
1.2042182163e+00
1.2042427848e+00
1.2042709925e+00
1.2043033368e+00
1.2043403549e+00
1.2043826071e+00
1.2044305884e+00
1.2044846486e+00
1.2045448407e+00
1.2046107922e+00
1.2046815406e+00
1.2047554416e+00
1.2048301056e+00
1.2049024698e+00
1.2049689442e+00
1.2050257206e+00
1.2050691141e+00
1.2050960239e+00
1.2051042811e+00
1.2050930267e+00
1.2050627964e+00
1.2050155941e+00
1.2049545780e+00
1.2048838157e+00
1.2048077024e+00
1.2047306149e+00
1.2046563666e+00
1.2045880245e+00
1.2045276369e+00
1.2044763172e+00
1.2044342619e+00
1.2044010066e+00
1.2043755879e+00
1.2043568054e+00
1.2043433715e+00
1.2043340727e+00
1.2043278378e+00
1.2043237894e+00
1.2043212422e+00
1.2043196896e+00
1.2043187725e+00
1.2043182478e+00
1.2043179568e+00
1.2043178004e+00
1.2043177191e+00
1.2043176781e+00
1.2043176581e+00
1.2043176488e+00
1.2043176452e+00
1.1933641679e+00
1.1936000484e+00
1.1938908577e+00
1.1943106033e+00
1.1948430426e+00
1.1954678949e+00
1.1961624841e+00
1.1969027524e+00
1.1976650273e+00
1.1984268545e+00
1.1991684327e+00
1.1998729813e+00
1.2005275711e+00
1.2011229447e+00
1.2016537217e+00
1.2021177895e+00
1.2025160601e+00
1.2028516673e+00
1.2031295321e+00
1.2033556013e+00
1.2035364435e+00
1.2036786797e+00
1.2037887305e+00
1.2038724832e+00
1.2039352083e+00
1.2039814265e+00
1.2040149509e+00
1.2040388800e+00
1.2040557043e+00
1.2040673560e+00
1.2040753276e+00
1.2040807329e+00
1.2040844077e+00
1.2040869591e+00
1.2040888384e+00
1.2040903737e+00
1.2040918166e+00
1.2040933610e+00
1.2040951697e+00
1.2040973843e+00
1.2041001387e+00
1.2041035642e+00
1.2041077942e+00
1.2041129679e+00
1.2041192290e+00
1.2041267305e+00
1.2041356303e+00
1.2041461004e+00
1.2041583230e+00
1.2041725095e+00
1.2041889013e+00
1.2042078004e+00
1.2042295752e+00
1.2042546948e+00
1.2042837242e+00
1.2043173350e+00
1.2043562558e+00
1.2044012197e+00
1.2044528363e+00
1.2045114564e+00
1.2045769795e+00
1.2046486851e+00
1.2047250725e+00
1.2048037918e+00
1.2048816627e+00
1.2049548475e+00
1.2050191322e+00
1.2050703584e+00
1.2051048630e+00
1.2051199853e+00
1.2051143814e+00
1.2050883173e+00
1.2050435856e+00
1.2049834171e+00
1.2049119767e+00
1.2048340047e+00
1.2047541551e+00
1.2046766667e+00
1.2046048805e+00
1.2045411720e+00
1.2044868073e+00
1.2044421401e+00
1.2044067241e+00
1.2043796133e+00
1.2043595457e+00
1.2043451823e+00
1.2043352299e+00
1.2043285557e+00
1.2043242201e+00
1.2043214930e+00
1.2043198308e+00
1.2043188497e+00
1.2043182885e+00
1.2043179776e+00
1.2043178107e+00
1.2043177240e+00
1.2043176804e+00
1.2043176592e+00
1.2043176492e+00
1.2043176454e+00
1.1942157525e+00
1.1944410696e+00
1.1947093915e+00
1.1950963982e+00
1.1955869381e+00
1.1961624841e+00
1.1968019676e+00
1.1974834432e+00
1.1981849303e+00
1.1988859763e+00
1.1995681821e+00
1.2002163071e+00
1.2008183062e+00
1.2013658357e+00
1.2018538284e+00
1.2022804810e+00
1.2026465444e+00
1.2029550071e+00
1.2032103301e+00
1.2034180590e+00
1.2035841858e+00
1.2037148521e+00
1.2038159245e+00
1.2038928521e+00
1.2039504518e+00
1.2039929038e+00
1.2040236909e+00
1.2040456782e+00
1.2040611369e+00
1.2040718553e+00
1.2040791912e+00
1.2040841774e+00
1.2040875714e+00
1.2040899377e+00
1.2040916835e+00
1.2040931146e+00
1.2040944567e+00
1.2040958899e+00
1.2040975595e+00
1.2040995951e+00
1.2041021150e+00
1.2041052357e+00
1.2041090737e+00
1.2041137472e+00
1.2041193787e+00
1.2041260924e+00
1.2041340196e+00
1.2041432962e+00
1.2041540762e+00
1.2041665347e+00
1.2041808955e+00
1.2041974438e+00
1.2042165667e+00
1.2042387681e+00
1.2042647027e+00
1.2042951636e+00
1.2043310653e+00
1.2043733585e+00
1.2044229175e+00
1.2044803583e+00
1.2045458388e+00
1.2046188368e+00
1.2046979685e+00
1.2047808774e+00
1.2048642462e+00
1.2049439542e+00
1.2050153985e+00
1.2050739292e+00
1.2051153960e+00
1.2051366334e+00
1.2051359461e+00
1.2051132946e+00
1.2050704257e+00
1.2050105597e+00
1.2049381202e+00
1.2048580599e+00
1.2047754411e+00
1.2046947697e+00
1.2046197541e+00
1.2045529505e+00
1.2044958402e+00
1.2044488259e+00
1.2044115229e+00
1.2043829394e+00
1.2043617829e+00
1.2043466353e+00
1.2043361459e+00
1.2043291131e+00
1.2043245493e+00
1.2043216805e+00
1.2043199345e+00
1.2043189049e+00
1.2043183169e+00
1.2043179917e+00
1.2043178175e+00
1.2043177272e+00
1.2043176818e+00
1.2043176598e+00
1.2043176495e+00
1.2043176455e+00
1.1951248297e+00
1.1953383552e+00
1.1955825267e+00
1.1959343111e+00
1.1963800584e+00
1.1969027524e+00
1.1974834432e+00
1.1981020080e+00
1.1987387042e+00
1.1993747771e+00
1.1999937396e+00
1.2005815940e+00
1.2011276018e+00
1.2016240569e+00
1.2020665220e+00
1.2024532567e+00
1.2027850667e+00
1.2030645851e+00
1.2032959492e+00
1.2034841309e+00
1.2036346282e+00
1.2037529668e+00
1.2038445099e+00
1.2039141645e+00
1.2039663273e+00
1.2040047617e+00
1.2040326449e+00
1.2040525537e+00
1.2040665609e+00
1.2040762716e+00
1.2040829271e+00
1.2040874512e+00
1.2040905388e+00
1.2040926925e+00
1.2040942874e+00
1.2040955941e+00
1.2040968216e+00
1.2040981282e+00
1.2040996474e+00
1.2041014926e+00
1.2041037699e+00
1.2041065799e+00
1.2041100225e+00
1.2041141971e+00
1.2041192028e+00
1.2041251401e+00
1.2041321095e+00
1.2041402194e+00
1.2041495896e+00
1.2041603724e+00
1.2041727674e+00
1.2041870608e+00
1.2042036524e+00
1.2042231022e+00
1.2042461484e+00
1.2042737247e+00
1.2043069213e+00
1.2043469148e+00
1.2043948239e+00
1.2044515186e+00
1.2045173815e+00
1.2045920558e+00
1.2046742327e+00
1.2047615087e+00
1.2048503933e+00
1.2049364637e+00
1.2050147102e+00
1.2050800260e+00
1.2051277700e+00
1.2051543758e+00
1.2051577825e+00
1.2051378043e+00
1.2050960854e+00
1.2050360136e+00
1.2049621549e+00
1.2048798346e+00
1.2047943611e+00
1.2047106305e+00
1.2046325476e+00
1.2045629349e+00
1.2045033478e+00
1.2044542961e+00
1.2044153641e+00
1.2043855549e+00
1.2043634984e+00
1.2043477265e+00
1.2043368137e+00
1.2043295092e+00
1.2043247749e+00
1.2043218048e+00
1.2043200000e+00
1.2043189382e+00
1.2043183331e+00
1.2043179992e+00
1.2043178208e+00
1.2043177285e+00
1.2043176823e+00
1.2043176599e+00
1.2043176495e+00
1.2043176455e+00
1.1960618379e+00
1.1962629611e+00
1.1964820414e+00
1.1967974582e+00
1.1971968160e+00
1.1976650273e+00
1.1981849303e+00
1.1987387042e+00
1.1993084799e+00
1.1998776801e+00
1.2004313700e+00
1.2009572231e+00
1.2014454798e+00
1.2018894194e+00
1.2022849530e+00
1.2026306644e+00
1.2029271840e+00
1.2031769731e+00
1.2033836651e+00
1.2035517822e+00
1.2036861908e+00
1.2037918842e+00
1.2038736195e+00
1.2039358191e+00
1.2039823839e+00
1.2040167021e+00
1.2040415905e+00
1.2040593691e+00
1.2040718727e+00
1.2040805479e+00
1.2040864903e+00
1.2040905354e+00
1.2040932934e+00
1.2040952213e+00
1.2040966467e+00
1.2040978174e+00
1.2040989144e+00
1.2041000832e+00
1.2041014388e+00
1.2041030837e+00
1.2041051083e+00
1.2041075999e+00
1.2041106412e+00
1.2041143130e+00
1.2041186931e+00
1.2041238561e+00
1.2041298771e+00
1.2041368333e+00
1.2041448196e+00
1.2041539613e+00
1.2041644481e+00
1.2041765644e+00
1.2041907412e+00
1.2042075933e+00
1.2042279618e+00
1.2042529187e+00
1.2042837421e+00
1.2043218254e+00
1.2043685250e+00
1.2044249429e+00
1.2044916537e+00
1.2045684316e+00
1.2046539901e+00
1.2047458439e+00
1.2048402807e+00
1.2049325564e+00
1.2050172479e+00
1.2050887921e+00
1.2051421222e+00
1.2051732741e+00
1.2051799592e+00
1.2051618166e+00
1.2051205696e+00
1.2050596828e+00
1.2049840483e+00
1.2048992096e+00
1.2048108747e+00
1.2047241438e+00
1.2046432311e+00
1.2045710525e+00
1.2045093155e+00
1.2044585103e+00
1.2044182443e+00
1.2043874422e+00
1.2043646941e+00
1.2043484501e+00
1.2043372360e+00
1.2043297430e+00
1.2043248988e+00
1.2043218663e+00
1.2043200287e+00
1.2043189502e+00
1.2043183375e+00
1.2043180004e+00
1.2043178208e+00
1.2043177282e+00
1.2043176820e+00
1.2043176597e+00
1.2043176494e+00
1.2043176454e+00
1.1969991221e+00
1.1971875977e+00
1.1973815442e+00
1.1976603986e+00
1.1980133343e+00
1.1984268545e+00
1.1988859763e+00
1.1993747771e+00
1.1998776801e+00
1.2003798710e+00
1.2008683681e+00
1.2013321335e+00
1.2017627372e+00
1.2021541190e+00
1.2025028239e+00
1.2028075013e+00
1.2030688262e+00
1.2032888934e+00
1.2034709945e+00
1.2036190606e+00
1.2037374441e+00
1.2038305045e+00
1.2039024776e+00
1.2039572291e+00
1.2039982257e+00
1.2040284282e+00
1.2040503389e+00
1.2040659823e+00
1.2040769894e+00
1.2040846197e+00
1.2040898496e+00
1.2040934031e+00
1.2040958271e+00
1.2040975153e+00
1.2040987636e+00
1.2040997837e+00
1.2041007407e+00
1.2041017577e+00
1.2041029394e+00
1.2041043714e+00
1.2041061333e+00
1.2041082961e+00
1.2041109275e+00
1.2041140889e+00
1.2041178370e+00
1.2041222229e+00
1.2041272942e+00
1.2041331032e+00
1.2041397173e+00
1.2041472454e+00
1.2041558664e+00
1.2041658784e+00
1.2041777456e+00
1.2041921557e+00
1.2042100567e+00
1.2042326734e+00
1.2042614720e+00
1.2042980619e+00
1.2043440266e+00
1.2044006721e+00
1.2044687404e+00
1.2045480796e+00
1.2046373943e+00
1.2047340485e+00
1.2048340873e+00
1.2049324018e+00
1.2050231564e+00
1.2051003532e+00
1.2051585149e+00
1.2051933840e+00
1.2052024418e+00
1.2051853232e+00
1.2051437713e+00
1.2050815244e+00
1.2050036661e+00
1.2049161399e+00
1.2048248632e+00
1.2047352828e+00
1.2046517237e+00
1.2045772973e+00
1.2045137006e+00
1.2044614758e+00
1.2044201475e+00
1.2043886123e+00
1.2043653675e+00
1.2043488156e+00
1.2043374147e+00
1.2043298203e+00
1.2043249233e+00
1.2043218678e+00
1.2043200217e+00
1.2043189421e+00
1.2043183307e+00
1.2043179956e+00
1.2043178177e+00
1.2043177264e+00
1.2043176810e+00
1.2043176592e+00
1.2043176491e+00
1.2043176452e+00
1.1979120365e+00
1.1980880759e+00
1.1982574082e+00
1.1985006318e+00
1.1988081772e+00
1.1991684327e+00
1.1995681821e+00
1.1999937396e+00
1.2004313700e+00
1.2008683681e+00
1.2012932738e+00
1.2016966633e+00
1.2020710640e+00
1.2024113615e+00
1.2027144406e+00
1.2029792547e+00
1.2032063069e+00
1.2033975161e+00
1.2035556817e+00
1.2036842917e+00
1.2037870829e+00
1.2038678935e+00
1.2039303696e+00
1.2039779040e+00
1.2040134819e+00
1.2040396989e+00
1.2040587076e+00
1.2040722833e+00
1.2040818260e+00
1.2040884423e+00
1.2040929673e+00
1.2040960399e+00
1.2040981251e+00
1.2040995732e+00
1.2041006336e+00
1.2041014969e+00
1.2041023006e+00
1.2041031566e+00
1.2041041506e+00
1.2041053589e+00
1.2041068448e+00
1.2041086672e+00
1.2041108760e+00
1.2041135153e+00
1.2041166201e+00
1.2041202181e+00
1.2041243322e+00
1.2041289890e+00
1.2041342355e+00
1.2041401648e+00
1.2041469569e+00
1.2041549277e+00
1.2041645906e+00
1.2041767142e+00
1.2041923690e+00
1.2042129400e+00
1.2042400862e+00
1.2042756326e+00
1.2043213694e+00
1.2043787922e+00
1.2044487554e+00
1.2045311564e+00
1.2046246105e+00
1.2047263095e+00
1.2048319828e+00
1.2049361553e+00
1.2050325576e+00
1.2051147785e+00
1.2051769924e+00
1.2052146677e+00
1.2052252025e+00
1.2052082014e+00
1.2051656253e+00
1.2051013812e+00
1.2050209470e+00
1.2049304849e+00
1.2048362939e+00
1.2047439522e+00
1.2046580245e+00
1.2045816216e+00
1.2045165220e+00
1.2044631782e+00
1.2044210974e+00
1.2043890673e+00
1.2043655378e+00
1.2043488293e+00
1.2043373620e+00
1.2043297465e+00
1.2043248546e+00
1.2043218125e+00
1.2043199819e+00
1.2043189152e+00
1.2043183137e+00
1.2043179853e+00
1.2043178119e+00
1.2043177232e+00
1.2043176793e+00
1.2043176583e+00
1.2043176487e+00
1.2043176450e+00
1.1987799706e+00
1.1989440126e+00
1.1990899311e+00
1.1992991372e+00
1.1995635255e+00
1.1998729813e+00
1.2002163071e+00
1.2005815940e+00
1.2009572231e+00
1.2013321335e+00
1.2016966633e+00
1.2020425873e+00
1.2023636519e+00
1.2026553552e+00
1.2029151577e+00
1.2031420717e+00
1.2033366332e+00
1.2035004191e+00
1.2036359071e+00
1.2037460361e+00
1.2038340641e+00
1.2039032421e+00
1.2039567326e+00
1.2039974131e+00
1.2040278676e+00
1.2040502965e+00
1.2040665624e+00
1.2040781674e+00
1.2040863249e+00
1.2040919679e+00
1.2040958227e+00
1.2040984253e+00
1.2041001830e+00
1.2041013870e+00
1.2041022587e+00
1.2041029545e+00
1.2041035981e+00
1.2041042793e+00
1.2041050752e+00
1.2041060448e+00
1.2041072418e+00
1.2041087080e+00
1.2041104792e+00
1.2041125794e+00
1.2041150239e+00
1.2041178167e+00
1.2041209574e+00
1.2041244498e+00
1.2041283230e+00
1.2041326621e+00
1.2041376539e+00
1.2041436451e+00
1.2041512090e+00
1.2041612102e+00
1.2041748544e+00
1.2041936961e+00
1.2042195949e+00
1.2042545792e+00
1.2043006418e+00
1.2043594201e+00
1.2044318637e+00
1.2045178355e+00
1.2046158417e+00
1.2047228078e+00
1.2048341434e+00
1.2049439467e+00
1.2050455375e+00
1.2051321079e+00
1.2051975192e+00
1.2052370776e+00
1.2052481029e+00
1.2052303558e+00