# vtk DataFile Version 2.0
Blank
ASCII
DATASET STRUCTURED_GRID
DIMENSIONS 101 101 2
POINTS 20402 float
0.0000000000e+00 0.0000000000e+00 0.0000000000e+00
1.0000000000e-02 0.0000000000e+00 0.0000000000e+00
2.0000000000e-02 0.0000000000e+00 0.0000000000e+00
3.0000000000e-02 0.0000000000e+00 0.0000000000e+00
4.0000000000e-02 0.0000000000e+00 0.0000000000e+00
5.0000000000e-02 0.0000000000e+00 0.0000000000e+00
6.0000000000e-02 0.0000000000e+00 0.0000000000e+00
7.0000000000e-02 0.0000000000e+00 0.0000000000e+00
8.0000000000e-02 0.0000000000e+00 0.0000000000e+00
9.0000000000e-02 0.0000000000e+00 0.0000000000e+00
1.0000000000e-01 0.0000000000e+00 0.0000000000e+00
1.1000000000e-01 0.0000000000e+00 0.0000000000e+00
1.2000000000e-01 0.0000000000e+00 0.0000000000e+00
1.3000000000e-01 0.0000000000e+00 0.0000000000e+00
1.4000000000e-01 0.0000000000e+00 0.0000000000e+00
1.5000000000e-01 0.0000000000e+00 0.0000000000e+00
1.6000000000e-01 0.0000000000e+00 0.0000000000e+00
1.7000000000e-01 0.0000000000e+00 0.0000000000e+00
1.8000000000e-01 0.0000000000e+00 0.0000000000e+00
1.9000000000e-01 0.0000000000e+00 0.0000000000e+00
2.0000000000e-01 0.0000000000e+00 0.0000000000e+00
2.1000000000e-01 0.0000000000e+00 0.0000000000e+00
2.2000000000e-01 0.0000000000e+00 0.0000000000e+00
2.3000000000e-01 0.0000000000e+00 0.0000000000e+00
2.4000000000e-01 0.0000000000e+00 0.0000000000e+00
2.5000000000e-01 0.0000000000e+00 0.0000000000e+00
2.6000000000e-01 0.0000000000e+00 0.0000000000e+00
2.7000000000e-01 0.0000000000e+00 0.0000000000e+00
2.8000000000e-01 0.0000000000e+00 0.0000000000e+00
2.9000000000e-01 0.0000000000e+00 0.0000000000e+00
3.0000000000e-01 0.0000000000e+00 0.0000000000e+00
3.1000000000e-01 0.0000000000e+00 0.0000000000e+00
3.2000000000e-01 0.0000000000e+00 0.0000000000e+00
3.3000000000e-01 0.0000000000e+00 0.0000000000e+00
3.4000000000e-01 0.0000000000e+00 0.0000000000e+00
3.5000000000e-01 0.0000000000e+00 0.0000000000e+00
3.6000000000e-01 0.0000000000e+00 0.0000000000e+00
3.7000000000e-01 0.0000000000e+00 0.0000000000e+00
3.8000000000e-01 0.0000000000e+00 0.0000000000e+00
3.9000000000e-01 0.0000000000e+00 0.0000000000e+00
4.0000000000e-01 0.0000000000e+00 0.0000000000e+00
4.1000000000e-01 0.0000000000e+00 0.0000000000e+00
4.2000000000e-01 0.0000000000e+00 0.0000000000e+00
4.3000000000e-01 0.0000000000e+00 0.0000000000e+00
4.4000000000e-01 0.0000000000e+00 0.0000000000e+00
4.5000000000e-01 0.0000000000e+00 0.0000000000e+00
4.6000000000e-01 0.0000000000e+00 0.0000000000e+00
4.7000000000e-01 0.0000000000e+00 0.0000000000e+00
4.8000000000e-01 0.0000000000e+00 0.0000000000e+00
4.9000000000e-01 0.0000000000e+00 0.0000000000e+00
5.0000000000e-01 0.0000000000e+00 0.0000000000e+00
5.1000000000e-01 0.0000000000e+00 0.0000000000e+00
5.2000000000e-01 0.0000000000e+00 0.0000000000e+00
5.3000000000e-01 0.0000000000e+00 0.0000000000e+00
5.4000000000e-01 0.0000000000e+00 0.0000000000e+00
5.5000000000e-01 0.0000000000e+00 0.0000000000e+00
5.6000000000e-01 0.0000000000e+00 0.0000000000e+00
5.7000000000e-01 0.0000000000e+00 0.0000000000e+00
5.8000000000e-01 0.0000000000e+00 0.0000000000e+00
5.9000000000e-01 0.0000000000e+00 0.0000000000e+00
6.0000000000e-01 0.0000000000e+00 0.0000000000e+00
6.1000000000e-01 0.0000000000e+00 0.0000000000e+00
6.2000000000e-01 0.0000000000e+00 0.0000000000e+00
6.3000000000e-01 0.0000000000e+00 0.0000000000e+00
6.4000000000e-01 0.0000000000e+00 0.0000000000e+00
6.5000000000e-01 0.0000000000e+00 0.0000000000e+00
6.6000000000e-01 0.0000000000e+00 0.0000000000e+00
6.7000000000e-01 0.0000000000e+00 0.0000000000e+00
6.8000000000e-01 0.0000000000e+00 0.0000000000e+00
6.9000000000e-01 0.0000000000e+00 0.0000000000e+00
7.0000000000e-01 0.0000000000e+00 0.0000000000e+00
7.1000000000e-01 0.0000000000e+00 0.0000000000e+00
7.2000000000e-01 0.0000000000e+00 0.0000000000e+00
7.3000000000e-01 0.0000000000e+00 0.0000000000e+00
7.4000000000e-01 0.0000000000e+00 0.0000000000e+00
7.5000000000e-01 0.0000000000e+00 0.0000000000e+00
7.6000000000e-01 0.0000000000e+00 0.0000000000e+00
7.7000000000e-01 0.0000000000e+00 0.0000000000e+00
7.8000000000e-01 0.0000000000e+00 0.0000000000e+00
7.9000000000e-01 0.0000000000e+00 0.0000000000e+00
8.0000000000e-01 0.0000000000e+00 0.0000000000e+00
8.1000000000e-01 0.0000000000e+00 0.0000000000e+00
8.2000000000e-01 0.0000000000e+00 0.0000000000e+00
8.3000000000e-01 0.0000000000e+00 0.0000000000e+00
8.4000000000e-01 0.0000000000e+00 0.0000000000e+00
8.5000000000e-01 0.0000000000e+00 0.0000000000e+00
8.6000000000e-01 0.0000000000e+00 0.0000000000e+00
8.7000000000e-01 0.0000000000e+00 0.0000000000e+00
8.8000000000e-01 0.0000000000e+00 0.0000000000e+00
8.9000000000e-01 0.0000000000e+00 0.0000000000e+00
9.0000000000e-01 0.0000000000e+00 0.0000000000e+00
9.1000000000e-01 0.0000000000e+00 0.0000000000e+00
9.2000000000e-01 0.0000000000e+00 0.0000000000e+00
9.3000000000e-01 0.0000000000e+00 0.0000000000e+00
9.4000000000e-01 0.0000000000e+00 0.0000000000e+00
9.5000000000e-01 0.0000000000e+00 0.0000000000e+00
9.6000000000e-01 0.0000000000e+00 0.0000000000e+00
9.7000000000e-01 0.0000000000e+00 0.0000000000e+00
9.8000000000e-01 0.0000000000e+00 0.0000000000e+00
9.9000000000e-01 0.0000000000e+00 0.0000000000e+00
1.0000000000e+00 0.0000000000e+00 0.0000000000e+00
0.0000000000e+00 1.0000000000e-02 0.0000000000e+00
1.0000000000e-02 1.0000000000e-02 0.0000000000e+00
2.0000000000e-02 1.0000000000e-02 0.0000000000e+00
3.0000000000e-02 1.0000000000e-02 0.0000000000e+00
4.0000000000e-02 1.0000000000e-02 0.0000000000e+00
5.0000000000e-02 1.0000000000e-02 0.0000000000e+00
6.0000000000e-02 1.0000000000e-02 0.0000000000e+00
7.0000000000e-02 1.0000000000e-02 0.0000000000e+00
8.0000000000e-02 1.0000000000e-02 0.0000000000e+00
9.0000000000e-02 1.0000000000e-02 0.0000000000e+00
1.0000000000e-01 1.0000000000e-02 0.0000000000e+00
1.1000000000e-01 1.0000000000e-02 0.0000000000e+00
1.2000000000e-01 1.0000000000e-02 0.0000000000e+00
1.3000000000e-01 1.0000000000e-02 0.0000000000e+00
1.4000000000e-01 1.0000000000e-02 0.0000000000e+00
1.5000000000e-01 1.0000000000e-02 0.0000000000e+00
1.6000000000e-01 1.0000000000e-02 0.0000000000e+00
1.7000000000e-01 1.0000000000e-02 0.0000000000e+00
1.8000000000e-01 1.0000000000e-02 0.0000000000e+00
1.9000000000e-01 1.0000000000e-02 0.0000000000e+00
2.0000000000e-01 1.0000000000e-02 0.0000000000e+00
2.1000000000e-01 1.0000000000e-02 0.0000000000e+00
2.2000000000e-01 1.0000000000e-02 0.0000000000e+00
2.3000000000e-01 1.0000000000e-02 0.0000000000e+00
2.4000000000e-01 1.0000000000e-02 0.0000000000e+00
2.5000000000e-01 1.0000000000e-02 0.0000000000e+00
2.6000000000e-01 1.0000000000e-02 0.0000000000e+00
2.7000000000e-01 1.0000000000e-02 0.0000000000e+00
2.8000000000e-01 1.0000000000e-02 0.0000000000e+00
2.9000000000e-01 1.0000000000e-02 0.0000000000e+00
3.0000000000e-01 1.0000000000e-02 0.0000000000e+00
3.1000000000e-01 1.0000000000e-02 0.0000000000e+00
3.2000000000e-01 1.0000000000e-02 0.0000000000e+00
3.3000000000e-01 1.0000000000e-02 0.0000000000e+00
3.4000000000e-01 1.0000000000e-02 0.0000000000e+00
3.5000000000e-01 1.0000000000e-02 0.0000000000e+00
3.6000000000e-01 1.0000000000e-02 0.0000000000e+00
3.7000000000e-01 1.0000000000e-02 0.0000000000e+00
3.8000000000e-01 1.0000000000e-02 0.0000000000e+00
3.9000000000e-01 1.0000000000e-02 0.0000000000e+00
4.0000000000e-01 1.0000000000e-02 0.0000000000e+00
4.1000000000e-01 1.0000000000e-02 0.0000000000e+00
4.2000000000e-01 1.0000000000e-02 0.0000000000e+00
4.3000000000e-01 1.0000000000e-02 0.0000000000e+00
4.4000000000e-01 1.0000000000e-02 0.0000000000e+00
4.5000000000e-01 1.0000000000e-02 0.0000000000e+00
4.6000000000e-01 1.0000000000e-02 0.0000000000e+00
4.7000000000e-01 1.0000000000e-02 0.0000000000e+00
4.8000000000e-01 1.0000000000e-02 0.0000000000e+00
4.9000000000e-01 1.0000000000e-02 0.0000000000e+00
5.0000000000e-01 1.0000000000e-02 0.0000000000e+00
5.1000000000e-01 1.0000000000e-02 0.0000000000e+00
5.2000000000e-01 1.0000000000e-02 0.0000000000e+00
5.3000000000e-01 1.0000000000e-02 0.0000000000e+00
5.4000000000e-01 1.0000000000e-02 0.0000000000e+00
5.5000000000e-01 1.0000000000e-02 0.0000000000e+00
5.6000000000e-01 1.0000000000e-02 0.0000000000e+00
5.7000000000e-01 1.0000000000e-02 0.0000000000e+00
5.8000000000e-01 1.0000000000e-02 0.0000000000e+00
5.9000000000e-01 1.0000000000e-02 0.0000000000e+00
6.0000000000e-01 1.0000000000e-02 0.0000000000e+00
6.1000000000e-01 1.0000000000e-02 0.0000000000e+00
6.2000000000e-01 1.0000000000e-02 0.0000000000e+00
6.3000000000e-01 1.0000000000e-02 0.0000000000e+00
6.4000000000e-01 1.0000000000e-02 0.0000000000e+00
6.5000000000e-01 1.0000000000e-02 0.0000000000e+00
6.6000000000e-01 1.0000000000e-02 0.0000000000e+00
6.7000000000e-01 1.0000000000e-02 0.0000000000e+00
6.8000000000e-01 1.0000000000e-02 0.0000000000e+00
6.9000000000e-01 1.0000000000e-02 0.0000000000e+00
7.0000000000e-01 1.0000000000e-02 0.0000000000e+00
7.1000000000e-01 1.0000000000e-02 0.0000000000e+00
7.2000000000e-01 1.0000000000e-02 0.0000000000e+00
7.3000000000e-01 1.0000000000e-02 0.0000000000e+00
7.4000000000e-01 1.0000000000e-02 0.0000000000e+00
7.5000000000e-01 1.0000000000e-02 0.0000000000e+00
7.6000000000e-01 1.0000000000e-02 0.0000000000e+00
7.7000000000e-01 1.0000000000e-02 0.0000000000e+00
7.8000000000e-01 1.0000000000e-02 0.0000000000e+00
7.9000000000e-01 1.0000000000e-02 0.0000000000e+00
8.0000000000e-01 1.0000000000e-02 0.0000000000e+00
8.1000000000e-01 1.0000000000e-02 0.0000000000e+00
8.2000000000e-01 1.0000000000e-02 0.0000000000e+00
8.3000000000e-01 1.0000000000e-02 0.0000000000e+00
8.4000000000e-01 1.0000000000e-02 0.0000000000e+00
8.5000000000e-01 1.0000000000e-02 0.0000000000e+00
8.6000000000e-01 1.0000000000e-02 0.0000000000e+00
8.7000000000e-01 1.0000000000e-02 0.0000000000e+00
8.8000000000e-01 1.0000000000e-02 0.0000000000e+00
8.9000000000e-01 1.0000000000e-02 0.0000000000e+00
9.0000000000e-01 1.0000000000e-02 0.0000000000e+00
9.1000000000e-01 1.0000000000e-02 0.0000000000e+00
9.2000000000e-01 1.0000000000e-02 0.0000000000e+00
[...]
CELL_DATA 10000

SCALARS massDensity float
LOOKUP_TABLE default
1.1977227792e+00
1.1977811078e+00
1.1978670467e+00
1.1979961230e+00
1.1981654640e+00
1.1983714827e+00
1.1986100091e+00
1.1988764031e+00
1.1991656975e+00
1.1994727267e+00
1.1997922799e+00
1.2001192278e+00
1.2004486611e+00
1.2007759924e+00
1.2010970616e+00
1.2014081983e+00
1.2017062828e+00
1.2019887650e+00
1.2022536803e+00
1.2024996280e+00
1.2027257502e+00
1.2029316800e+00
1.2031174948e+00
1.2032836477e+00
1.2034309100e+00
1.2035602979e+00
1.2036730159e+00
1.2037703907e+00
1.2038538235e+00
1.2039247374e+00
1.2039845438e+00
1.2040346058e+00
1.2040762195e+00
1.2041105923e+00
1.2041388379e+00
1.2041619662e+00
1.2041808879e+00
1.2041964134e+00
1.2042092618e+00
1.2042200643e+00
1.2042293750e+00
1.2042376746e+00
1.2042453800e+00
1.2042528461e+00
1.2042603723e+00
1.2042682021e+00
1.2042765261e+00
1.2042854790e+00
1.2042951419e+00
1.2043055384e+00
1.2043166372e+00
1.2043283510e+00
1.2043405412e+00
1.2043530212e+00
1.2043655655e+00
1.2043779172e+00
1.2043898013e+00
1.2044009352e+00
1.2044110441e+00
1.2044198723e+00
1.2044271967e+00
1.2044328356e+00
1.2044366582e+00
1.2044385878e+00
1.2044386054e+00
1.2044367468e+00
1.2044330999e+00
1.2044277973e+00
1.2044210089e+00
1.2044129320e+00
1.2044037817e+00
1.2043937815e+00
1.2043831546e+00
1.2043721157e+00
1.2043608655e+00
1.2043495855e+00
1.2043384352e+00
1.2043275504e+00
1.2043170427e+00
1.2043070006e+00
1.2042974902e+00
1.2042885584e+00
1.2042802341e+00
1.2042725320e+00
1.2042654542e+00
1.2042589944e+00
1.2042531396e+00
1.2042478751e+00
1.2042431862e+00
1.2042390643e+00
1.2042355099e+00
1.2042325390e+00
1.2042301876e+00
1.2042285185e+00
1.2042276258e+00
1.2042276413e+00
1.2042287349e+00
1.2042311103e+00
1.2042349713e+00
1.2042207901e+00
1.1977811078e+00
1.1978424646e+00
1.1979295088e+00
1.1980587887e+00
1.1982276624e+00
1.1984327169e+00
1.1986698952e+00
1.1989346527e+00
1.1992220840e+00
1.1995270883e+00
1.1998444963e+00
1.2001692294e+00
1.2004964093e+00
1.2008214902e+00
1.2011403350e+00
1.2014493061e+00
1.2017452994e+00
1.2020257888e+00
1.2022888180e+00
1.2025330023e+00
1.2027574852e+00
1.2029619086e+00
1.2031463457e+00
1.2033112529e+00
1.2034573929e+00
1.2035857809e+00
1.2036976106e+00
1.2037942046e+00
1.2038769523e+00
1.2039472710e+00
1.2040065599e+00
1.2040561755e+00
1.2040974013e+00
1.2041314378e+00
1.2041593853e+00
1.2041822453e+00
1.2042009143e+00
1.2042161913e+00
1.2042287784e+00
1.2042392916e+00
1.2042482637e+00
1.2042561555e+00
1.2042633576e+00
1.2042702001e+00
1.2042769529e+00
1.2042838320e+00
1.2042909980e+00
1.2042985613e+00
1.2043065789e+00
1.2043150598e+00
1.2043239631e+00
1.2043332047e+00
1.2043426583e+00
1.2043521649e+00
1.2043615373e+00
1.2043705726e+00
1.2043790590e+00
1.2043867892e+00
1.2043935686e+00
1.2043992272e+00
1.2044036252e+00
1.2044066619e+00
1.2044082773e+00
1.2044084559e+00
1.2044072235e+00
1.2044046461e+00
1.2044008234e+00
1.2043958833e+00
1.2043899742e+00
1.2043832579e+00
1.2043759019e+00
1.2043680727e+00
1.2043599306e+00
1.2043516241e+00
1.2043432876e+00
1.2043350384e+00
1.2043269761e+00
1.2043191821e+00
1.2043117210e+00
1.2043046408e+00
1.2042979758e+00
1.2042917471e+00
1.2042859661e+00
1.2042806348e+00
1.2042757496e+00
1.2042713015e+00
1.2042672798e+00
1.2042636723e+00
1.2042604693e+00
1.2042576641e+00
1.2042552571e+00
1.2042532560e+00
1.2042516805e+00
1.2042505612e+00
1.2042499426e+00
1.2042498788e+00
1.2042504284e+00
1.2042516355e+00
1.2042534921e+00
1.2042353512e+00
1.1978670467e+00
1.1979295088e+00
1.1980160302e+00
1.1981439714e+00
1.1983108073e+00
1.1985132195e+00
1.1987472536e+00
1.1990084426e+00
1.1992919739e+00
1.1995928154e+00
1.1999058852e+00
1.2002261667e+00
1.2005488611e+00
1.2008694754e+00
1.2011839399e+00
1.2014886575e+00
1.2017805763e+00
1.2020571964e+00
1.2023165968e+00
1.2025574044e+00
1.2027787825e+00
1.2029803713e+00
1.2031622503e+00
1.2033248641e+00
1.2034689715e+00
1.2035955691e+00
1.2037058402e+00
1.2038010855e+00
1.2038826808e+00
1.2039520212e+00
1.2040104920e+00
1.2040594295e+00
1.2041001051e+00
1.2041337022e+00
1.2041613122e+00
1.2041839237e+00
1.2042024271e+00
1.2042176123e+00
1.2042301784e+00
1.2042407345e+00
1.2042498119e+00
1.2042578651e+00
1.2042652826e+00
1.2042723868e+00
1.2042794423e+00
1.2042866540e+00
1.2042941730e+00
1.2043020938e+00
1.2043104594e+00
1.2043192590e+00
1.2043284348e+00
1.2043378820e+00
1.2043474582e+00
1.2043569871e+00
1.2043662710e+00
1.2043750977e+00
1.2043832545e+00
1.2043905363e+00
1.2043967592e+00
1.2044017668e+00
1.2044054405e+00
1.2044077020e+00
1.2044085183e+00
1.2044078999e+00
1.2044058996e+00
1.2044026069e+00
1.2043981424e+00
1.2043926503e+00
1.2043862906e+00
1.2043792312e+00
1.2043716410e+00
1.2043636834e+00
1.2043555112e+00
1.2043472632e+00
1.2043390611e+00
1.2043310088e+00
1.2043231918e+00
1.2043156782e+00
1.2043085194e+00
1.2043017527e+00
1.2042954021e+00
1.2042894816e+00
1.2042839956e+00
1.2042789429e+00
1.2042743162e+00
1.2042701061e+00
1.2042663007e+00
1.2042628891e+00
1.2042598610e+00
1.2042572106e+00
1.2042549354e+00
1.2042530400e+00
1.2042515345e+00
1.2042504363e+00
1.2042497662e+00
1.2042495457e+00
1.2042497849e+00
1.2042504655e+00
1.2042515041e+00
1.2042312290e+00
1.1979961230e+00
1.1980587887e+00
1.1981439714e+00
1.1982696234e+00
1.1984332749e+00
1.1986317058e+00
1.1988610520e+00
1.1991169648e+00
1.1993947293e+00
1.1996894367e+00
1.1999961014e+00
1.2003098261e+00
1.2006258993e+00
1.2009399345e+00
1.2012479340e+00
1.2015463872e+00
1.2018322938e+00
1.2021032168e+00
1.2023572651e+00
1.2025931039e+00
1.2028099054e+00
1.2030073263e+00
1.2031854376e+00
1.2033446824e+00
1.2034857984e+00
1.2036097686e+00
1.2037177472e+00
1.2038110145e+00
1.2038909142e+00
1.2039588186e+00
1.2040160821e+00
1.2040640190e+00
1.2041038735e+00
1.2041368107e+00
1.2041638997e+00
1.2041861152e+00
1.2042043310e+00
1.2042193277e+00
1.2042317919e+00
1.2042423272e+00
1.2042514554e+00
1.2042596269e+00
1.2042672214e+00
1.2042745566e+00
1.2042818865e+00
1.2042894082e+00
1.2042972587e+00
1.2043055205e+00
1.2043142186e+00
1.2043233266e+00
1.2043327663e+00
1.2043424161e+00
1.2043521143e+00
1.2043616709e+00
1.2043708746e+00
1.2043795068e+00
1.2043873508e+00
1.2043942058e+00
1.2043998954e+00
1.2044042785e+00
1.2044072544e+00
1.2044087684e+00
1.2044088118e+00
1.2044074216e+00
1.2044046755e+00
1.2044006867e+00
1.2043955957e+00
1.2043895629e+00
1.2043827596e+00
1.2043753599e+00
1.2043675344e+00
1.2043594433e+00
1.2043512331e+00
1.2043430326e+00
1.2043349519e+00
1.2043270816e+00
1.2043194943e+00
1.2043122444e+00
1.2043053717e+00
1.2042989020e+00
1.2042928504e+00
1.2042872226e+00
1.2042820178e+00
1.2042772297e+00
1.2042728488e+00
1.2042688631e+00
1.2042652608e+00
1.2042620294e+00
1.2042591593e+00
1.2042566424e+00
1.2042544748e+00
1.2042526555e+00
1.2042511881e+00
1.2042500771e+00
1.2042493283e+00
1.2042489404e+00
1.2042488994e+00
1.2042491620e+00
1.2042496372e+00
1.2042278136e+00
1.1981654640e+00
1.1982276624e+00
1.1983108073e+00
1.1984332749e+00
1.1985926621e+00
1.1987858290e+00
1.1990090365e+00
1.1992580491e+00
1.1995283013e+00
1.1998150086e+00
1.2001133401e+00
1.2004185195e+00
1.2007259810e+00
1.2010314442e+00
1.2013310359e+00
1.2016213283e+00
1.2018994174e+00
1.2021629205e+00
1.2024100111e+00
1.2026393804e+00
1.2028502345e+00
1.2030422307e+00
1.2032154478e+00
1.2033703096e+00
1.2035075419e+00
1.2036280950e+00
1.2037330988e+00
1.2038237938e+00
1.2039014934e+00
1.2039675292e+00
1.2040232242e+00
1.2040698551e+00
1.2041086379e+00
1.2041407054e+00
1.2041671041e+00
1.2041887828e+00
1.2042065987e+00
1.2042213131e+00
1.2042336014e+00
1.2042440530e+00
1.2042531823e+00
1.2042614286e+00
1.2042691654e+00
1.2042766998e+00
1.2042842786e+00
1.2042920860e+00
1.2043002491e+00
1.2043088341e+00
1.2043178520e+00
1.2043272573e+00
1.2043369553e+00
1.2043468045e+00
1.2043566276e+00
1.2043662178e+00
1.2043753531e+00
1.2043838055e+00
1.2043913568e+00
1.2043978073e+00
1.2044029896e+00
1.2044067751e+00
1.2044090817e+00
1.2044098757e+00
1.2044091730e+00
1.2044070351e+00
1.2044035646e+00
1.2043988972e+00
1.2043931934e+00
1.2043866292e+00
1.2043793870e+00
1.2043716478e+00
1.2043635835e+00
1.2043553524e+00
1.2043470942e+00
1.2043389290e+00
1.2043309554e+00
1.2043232520e+00
1.2043158779e+00
1.2043088755e+00
1.2043022721e+00
1.2042960836e+00
1.2042903153e+00
1.2042849660e+00
1.2042800283e+00
1.2042754919e+00
1.2042713438e+00
1.2042675705e+00
1.2042641579e+00
1.2042610937e+00
1.2042583661e+00
1.2042559666e+00
1.2042538878e+00
1.2042521256e+00
1.2042506763e+00
1.2042495375e+00
1.2042487029e+00
1.2042481604e+00
1.2042478836e+00
1.2042478259e+00
1.2042479073e+00
1.2042248882e+00
1.1983714827e+00
1.1984327169e+00
1.1985132195e+00
1.1986317058e+00
1.1987858290e+00
1.1989725635e+00
1.1991882847e+00
1.1994289187e+00
1.1996900424e+00
1.1999670537e+00
1.2002552711e+00
1.2005500998e+00
1.2008471136e+00
1.2011421957e+00
1.2014315895e+00
1.2017120004e+00
1.2019806089e+00
1.2022351289e+00
1.2024737834e+00
1.2026953217e+00
1.2028989664e+00
1.2030843980e+00
1.2032516839e+00
1.2034012433e+00
1.2035337702e+00
1.2036501908e+00
1.2037515908e+00
1.2038391758e+00
1.2039142101e+00
1.2039779861e+00
1.2040317791e+00
1.2040768284e+00
1.2041143073e+00
1.2041453164e+00
1.2041708669e+00
1.2041918825e+00
1.2042091929e+00
1.2042235412e+00
1.2042355828e+00
1.2042458947e+00
1.2042549764e+00
1.2042632586e+00
1.2042711025e+00
1.2042788077e+00
1.2042866086e+00
1.2042946806e+00
1.2043031360e+00
1.2043120290e+00
1.2043213529e+00
1.2043310472e+00
1.2043409974e+00
1.2043510460e+00
1.2043609969e+00
1.2043706298e+00
1.2043797091e+00
1.2043880000e+00
1.2043952794e+00
1.2044013507e+00
1.2044060525e+00
1.2044092694e+00
1.2044109354e+00
1.2044110380e+00
1.2044096155e+00
1.2044067539e+00
1.2044025794e+00
1.2043972500e+00
1.2043909454e+00
1.2043838571e+00
1.2043761792e+00
1.2043680990e+00
1.2043597910e+00
1.2043514110e+00
1.2043430937e+00
1.2043349500e+00
1.2043270686e+00
1.2043195156e+00
1.2043123383e+00
1.2043055664e+00
1.2042992163e+00
1.2042932928e+00
1.2042877931e+00
1.2042827077e+00
1.2042780241e+00
1.2042737266e+00
1.2042697997e+00
1.2042662267e+00
1.2042629927e+00
1.2042600834e+00
1.2042574867e+00
1.2042551914e+00
1.2042531891e+00
1.2042514713e+00
1.2042500312e+00
1.2042488595e+00
1.2042479449e+00
1.2042472685e+00
1.2042468018e+00
1.2042465001e+00
1.2042463004e+00
1.2042223027e+00
1.1986100091e+00
1.1986698952e+00
1.1987472536e+00
1.1988610520e+00
1.1990090365e+00
1.1991882847e+00
1.1993953318e+00
1.1996262532e+00
1.1998768239e+00
1.2001426119e+00
1.2004191462e+00
1.2007020011e+00
1.2009869503e+00
1.2012700271e+00
1.2015476465e+00
1.2018166318e+00
1.2020742958e+00
1.2023184308e+00
1.2025473478e+00
1.2027598347e+00
1.2029551592e+00
1.2031330046e+00
1.2032934469e+00
1.2034368799e+00
1.2035639789e+00
1.2036756256e+00
1.2037728696e+00
1.2038568620e+00
1.2039288226e+00
1.2039899875e+00
1.2040415864e+00
1.2040848059e+00
1.2041207780e+00
1.2041505580e+00
1.2041751227e+00
1.2041953598e+00
1.2042120729e+00
1.2042259776e+00
1.2042377110e+00
1.2042478301e+00
1.2042568217e+00
1.2042651016e+00
1.2042730219e+00
1.2042808689e+00
1.2042888687e+00
1.2042971828e+00
1.2043059130e+00
1.2043150976e+00
1.2043247166e+00
1.2043346906e+00
1.2043448899e+00
1.2043551373e+00
1.2043652221e+00
1.2043749070e+00
1.2043839460e+00
1.2043920942e+00
1.2043991258e+00
1.2044048439e+00
1.2044090945e+00
1.2044117723e+00
1.2044128281e+00
1.2044122680e+00
1.2044101528e+00
1.2044065911e+00
1.2044017326e+00
1.2043957565e+00
1.2043888617e+00
1.2043812554e+00
1.2043731429e+00
1.2043647187e+00
1.2043561599e+00
1.2043476210e+00
1.2043392314e+00
1.2043310948e+00
1.2043232891e+00
1.2043158698e+00
1.2043088718e+00
1.2043023137e+00
1.2042962000e+00
1.2042905263e+00
1.2042852800e+00
1.2042804451e+00
1.2042760024e+00
1.2042719323e+00
1.2042682150e+00
1.2042648321e+00
1.2042617663e+00
1.2042590025e+00
1.2042565265e+00
1.2042543268e+00
1.2042523920e+00
1.2042507126e+00
1.2042492778e+00
1.2042480761e+00
1.2042470922e+00
1.2042463060e+00
1.2042456888e+00
1.2042452027e+00
1.2042447974e+00
1.2042199658e+00
1.1988764031e+00
1.1989346527e+00
1.1990084426e+00
1.1991169648e+00
1.1992580491e+00
1.1994289187e+00
1.1996262532e+00
1.1998463292e+00
1.2000851025e+00
1.2003383702e+00
1.2006018532e+00
1.2008713558e+00
1.2011428325e+00
1.2014125246e+00
1.2016769985e+00
1.2019332473e+00
1.2021786943e+00
1.2024112542e+00
1.2026293034e+00
1.2028317030e+00
1.2030177431e+00
1.2031871352e+00
1.2033399421e+00
1.2034765499e+00
1.2035975938e+00
1.2037039231e+00
1.2037965314e+00
1.2038765229e+00
1.2039450549e+00
1.2040033119e+00
1.2040524621e+00
1.2040936426e+00
1.2041279303e+00
1.2041563375e+00
1.2041797954e+00
1.2041991572e+00
1.2042151909e+00
1.2042285870e+00
1.2042399559e+00
1.2042498372e+00
1.2042586986e+00
1.2042669437e+00
1.2042749098e+00
1.2042828739e+00
1.2042910483e+00
1.2042995852e+00
1.2043085717e+00
1.2043180343e+00
1.2043279360e+00
1.2043381833e+00
1.2043486276e+00
1.2043590765e+00
1.2043693009e+00
1.2043790504e+00
1.2043880649e+00
1.2043960924e+00
1.2044029007e+00
1.2044082946e+00
1.2044121240e+00
1.2044142948e+00
1.2044147712e+00
1.2044135784e+00
1.2044107974e+00
1.2044065596e+00
1.2044010363e+00
1.2043944282e+00
1.2043869530e+00
1.2043788332e+00
1.2043702858e+00
1.2043615129e+00
1.2043526948e+00
1.2043439851e+00
1.2043355092e+00
1.2043273631e+00
1.2043196162e+00
1.2043123126e+00
1.2043054764e+00
1.2042991144e+00
1.2042932209e+00
1.2042877808e+00
1.2042827738e+00
1.2042781757e+00
1.2042739619e+00
1.2042701075e+00
1.2042665899e+00
1.2042633874e+00
1.2042604813e+00
1.2042578544e+00
1.2042554923e+00
1.2042533812e+00
1.2042515096e+00
1.2042498654e+00
1.2042484372e+00
1.2042472111e+00
1.2042461716e+00
1.2042452978e+00
1.2042445645e+00
1.2042439389e+00
1.2042433827e+00
1.2042178210e+00
1.1991656975e+00
1.1992220840e+00
1.1992919739e+00
1.1993947293e+00
1.1995283013e+00
1.1996900424e+00
1.1998768239e+00
1.2000851025e+00
1.2003110700e+00
1.2005507289e+00
1.2008000514e+00
1.2010550472e+00
1.2013119100e+00
1.2015670636e+00
1.2018172805e+00
1.2020596975e+00
1.2022918962e+00
1.2025118875e+00
1.2027181530e+00
1.2029096012e+00
1.2030855756e+00
1.2032457920e+00
1.2033903222e+00
1.2035195223e+00
1.2036340038e+00
1.2037345627e+00
1.2038221476e+00
1.2038977975e+00
1.2039626147e+00
1.2040177156e+00
1.2040642124e+00
1.2041031783e+00
1.2041356392e+00
1.2041625524e+00
1.2041848063e+00
1.2042032100e+00
1.2042184986e+00
1.2042313290e+00
1.2042422880e+00
1.2042518909e+00
1.2042605891e+00
1.2042687684e+00
1.2042767548e+00
1.2042848107e+00
1.2042931393e+00
1.2043018786e+00
1.2043111056e+00
1.2043208313e+00
1.2043310062e+00
1.2043415192e+00
1.2043522073e+00
1.2043628594e+00
1.2043732321e+00
1.2043830586e+00
1.2043920677e+00
1.2043999966e+00
1.2044066094e+00
1.2044117087e+00
1.2044151495e+00
1.2044168457e+00
1.2044167756e+00
1.2044149806e+00
1.2044115618e+00
1.2044066715e+00
1.2044005029e+00
1.2043932769e+00
1.2043852299e+00
1.2043766001e+00
1.2043676163e+00
1.2043584886e+00
1.2043494010e+00
1.2043405075e+00
1.2043319293e+00
1.2043237568e+00
1.2043160500e+00
1.2043088437e+00
1.2043021507e+00
1.2042959672e+00
1.2042902767e+00
1.2042850550e+00
1.2042802724e+00
1.2042758983e+00
1.2042719013e+00
1.2042682525e+00
1.2042649246e+00
1.2042618943e+00
1.2042591400e+00
1.2042566439e+00
1.2042543896e+00
1.2042523635e+00
1.2042505521e+00
1.2042489436e+00
1.2042475248e+00
1.2042462826e+00
1.2042452004e+00
1.2042442600e+00
1.2042434382e+00
1.2042427091e+00
1.2042420414e+00
1.2042158307e+00
1.1994727267e+00
1.1995270883e+00
1.1995928154e+00
1.1996894367e+00
1.1998150086e+00
1.1999670537e+00
1.2001426119e+00
1.2003383702e+00
1.2005507289e+00
1.2007759519e+00
1.2010102329e+00
1.2012498441e+00
1.2014911880e+00
1.2017309261e+00
1.2019660063e+00
1.2021937589e+00
1.2024118942e+00
1.2026185621e+00
1.2028123207e+00
1.2029921611e+00
1.2031574538e+00
1.2033079458e+00
1.2034436940e+00
1.2035650447e+00
1.2036725640e+00
1.2037670094e+00
1.2038492653e+00
1.2039203161e+00
1.2039811924e+00
1.2040329502e+00
1.2040766312e+00
1.2041132507e+00
1.2041437711e+00
1.2041690992e+00
1.2041900708e+00
1.2042074542e+00
1.2042219432e+00
1.2042341647e+00
1.2042446747e+00
1.2042539675e+00
1.2042624725e+00
1.2042705610e+00
1.2042785428e+00
1.2042866699e+00
1.2042951313e+00
1.2043040559e+00
1.2043135063e+00
1.2043234830e+00
1.2043339202e+00
1.2043446940e+00
1.2043556233e+00
1.2043664833e+00
1.2043770124e+00
1.2043869310e+00
1.2043959537e+00
1.2044038094e+00
1.2044102547e+00
1.2044150917e+00
1.2044181773e+00
1.2044194338e+00
1.2044188507e+00
1.2044164854e+00
1.2044124573e+00
1.2044069389e+00
1.2044001442e+00
1.2043923142e+00
1.2043837037e+00
1.2043745664e+00
1.2043651436e+00
1.2043556537e+00
1.2043462854e+00
1.2043371931e+00
1.2043284960e+00
1.2043202782e+00
1.2043125924e+00
1.2043054637e+00
1.2042988950e+00
1.2042928715e+00
1.2042873671e+00
1.2042823476e+00
1.2042777755e+00
1.2042736121e+00
1.2042698207e+00
1.2042663669e+00
1.2042632205e+00
1.2042603544e+00
1.2042577458e+00
1.2042553748e+00
1.2042532248e+00
1.2042512805e+00
1.2042495290e+00
1.2042479572e+00
1.2042465530e+00
1.2042453022e+00
1.2042441907e+00
1.2042432010e+00
1.2042423143e+00
1.2042415086e+00
1.2042407608e+00
1.2042139642e+00
1.1997922799e+00
1.1998444963e+00
1.1999058852e+00
1.1999961014e+00
1.2001133401e+00
1.2002552711e+00
1.2004191462e+00
1.2006018532e+00
1.2008000514e+00
1.2010102329e+00
1.2012288668e+00
1.2014524527e+00
1.2016776556e+00
1.2019013399e+00
1.2021206788e+00
1.2023331624e+00
1.2025366744e+00
1.2027294718e+00
1.2029102271e+00
1.2030779849e+00
1.2032321733e+00
1.2033725444e+00
1.2034991645e+00
1.2036123469e+00
1.2037126307e+00
1.2038007147e+00
1.2038774333e+00
1.2039436988e+00
1.2040004806e+00
1.2040487597e+00
1.2040895151e+00
1.2041236917e+00
1.2041521948e+00
1.2041758705e+00
1.2041955066e+00
1.2042118223e+00
1.2042254745e+00
1.2042370524e+00
1.2042470858e+00
1.2042560413e+00
1.2042643304e+00
1.2042723050e+00
1.2042802624e+00
1.2042884398e+00
1.2042970166e+00
1.2043061083e+00
1.2043157681e+00
1.2043259818e+00
1.2043366730e+00
1.2043477011e+00
1.2043588720e+00
1.2043699431e+00
1.2043806395e+00
1.2043906649e+00
1.2043997230e+00
1.2044075307e+00
1.2044138395e+00
1.2044184471e+00
1.2044212135e+00
1.2044220659e+00
1.2044210052e+00
1.2044181025e+00
1.2044134946e+00
1.2044073731e+00
1.2043999719e+00
1.2043915519e+00
1.2043823856e+00
1.2043727428e+00
1.2043628774e+00
1.2043530170e+00
1.2043433553e+00
1.2043340488e+00
1.2043252143e+00
1.2043169317e+00
1.2043092463e+00
1.2043021750e+00
1.2042957103e+00
1.2042898283e+00
1.2042844922e+00
1.2042796591e+00
1.2042752827e+00
1.2042713176e+00
1.2042677204e+00
1.2042644524e+00
1.2042614787e+00
1.2042587702e+00
1.2042563014e+00
1.2042540516e+00
1.2042520024e+00
1.2042501390e+00
1.2042484473e+00
1.2042469153e+00
1.2042455300e+00
1.2042442794e+00
1.2042431494e+00
1.2042421260e+00
1.2042411926e+00
1.2042403326e+00
1.2042395272e+00
1.2042121949e+00
1.2001192278e+00
1.2001692294e+00
1.2002261667e+00
1.2003098261e+00
1.2004185195e+00
1.2005500998e+00
1.2007020011e+00
1.2008713558e+00
1.2010550472e+00
1.2012498441e+00
1.2014524527e+00
1.2016596508e+00
1.2018683265e+00
1.2020755960e+00
1.2022788198e+00
1.2024756931e+00
1.2026642370e+00
1.2028428554e+00
1.2030103029e+00
1.2031657109e+00
1.2033085365e+00
1.2034385643e+00
1.2035558450e+00
1.2036606807e+00
1.2037535623e+00
1.2038351471e+00
1.2039062013e+00
1.2039675785e+00
1.2040201718e+00
1.2040648975e+00
1.2041026594e+00
1.2041343403e+00
1.2041607780e+00
1.2041827641e+00
1.2042010300e+00
1.2042162513e+00
1.2042290405e+00
1.2042399542e+00
1.2042494892e+00
1.2042580896e+00
1.2042661432e+00
1.2042739868e+00
1.2042819006e+00
1.2042901116e+00
1.2042987856e+00
1.2043080293e+00
1.2043178828e+00
1.2043283227e+00
1.2043392577e+00
1.2043505361e+00
1.2043619472e+00
1.2043732354e+00
1.2043841086e+00
1.2043942584e+00
1.2044033731e+00
1.2044111610e+00
1.2044173642e+00
1.2044217782e+00
1.2044242618e+00
1.2044247482e+00
1.2044232463e+00
1.2044198407e+00
1.2044146836e+00
1.2044079849e+00
1.2043999975e+00
1.2043910013e+00
1.2043812871e+00
1.2043711405e+00
1.2043608284e+00
1.2043505880e+00
1.2043406197e+00
1.2043310818e+00