# vtk DataFile Version 2.0
Blank
ASCII
DATASET STRUCTURED_GRID
DIMENSIONS 101 101 2
POINTS 20402 float
0.0000000000e+00 0.0000000000e+00 0.0000000000e+00
1.0000000000e-02 0.0000000000e+00 0.0000000000e+00
2.0000000000e-02 0.0000000000e+00 0.0000000000e+00
3.0000000000e-02 0.0000000000e+00 0.0000000000e+00
4.0000000000e-02 0.0000000000e+00 0.0000000000e+00
5.0000000000e-02 0.0000000000e+00 0.0000000000e+00
6.0000000000e-02 0.0000000000e+00 0.0000000000e+00
7.0000000000e-02 0.0000000000e+00 0.0000000000e+00
8.0000000000e-02 0.0000000000e+00 0.0000000000e+00
9.0000000000e-02 0.0000000000e+00 0.0000000000e+00
1.0000000000e-01 0.0000000000e+00 0.0000000000e+00
1.1000000000e-01 0.0000000000e+00 0.0000000000e+00
1.2000000000e-01 0.0000000000e+00 0.0000000000e+00
1.3000000000e-01 0.0000000000e+00 0.0000000000e+00
1.4000000000e-01 0.0000000000e+00 0.0000000000e+00
1.5000000000e-01 0.0000000000e+00 0.0000000000e+00
1.6000000000e-01 0.0000000000e+00 0.0000000000e+00
1.7000000000e-01 0.0000000000e+00 0.0000000000e+00
1.8000000000e-01 0.0000000000e+00 0.0000000000e+00
1.9000000000e-01 0.0000000000e+00 0.0000000000e+00
2.0000000000e-01 0.0000000000e+00 0.0000000000e+00
2.1000000000e-01 0.0000000000e+00 0.0000000000e+00
2.2000000000e-01 0.0000000000e+00 0.0000000000e+00
2.3000000000e-01 0.0000000000e+00 0.0000000000e+00
2.4000000000e-01 0.0000000000e+00 0.0000000000e+00
2.5000000000e-01 0.0000000000e+00 0.0000000000e+00
2.6000000000e-01 0.0000000000e+00 0.0000000000e+00
2.7000000000e-01 0.0000000000e+00 0.0000000000e+00
2.8000000000e-01 0.0000000000e+00 0.0000000000e+00
2.9000000000e-01 0.0000000000e+00 0.0000000000e+00
3.0000000000e-01 0.0000000000e+00 0.0000000000e+00
3.1000000000e-01 0.0000000000e+00 0.0000000000e+00
3.2000000000e-01 0.0000000000e+00 0.0000000000e+00
3.3000000000e-01 0.0000000000e+00 0.0000000000e+00
3.4000000000e-01 0.0000000000e+00 0.0000000000e+00
3.5000000000e-01 0.0000000000e+00 0.0000000000e+00
3.6000000000e-01 0.0000000000e+00 0.0000000000e+00
3.7000000000e-01 0.0000000000e+00 0.0000000000e+00
3.8000000000e-01 0.0000000000e+00 0.0000000000e+00
3.9000000000e-01 0.0000000000e+00 0.0000000000e+00
4.0000000000e-01 0.0000000000e+00 0.0000000000e+00
4.1000000000e-01 0.0000000000e+00 0.0000000000e+00
4.2000000000e-01 0.0000000000e+00 0.0000000000e+00
4.3000000000e-01 0.0000000000e+00 0.0000000000e+00
4.4000000000e-01 0.0000000000e+00 0.0000000000e+00
4.5000000000e-01 0.0000000000e+00 0.0000000000e+00
4.6000000000e-01 0.0000000000e+00 0.0000000000e+00
4.7000000000e-01 0.0000000000e+00 0.0000000000e+00
4.8000000000e-01 0.0000000000e+00 0.0000000000e+00
4.9000000000e-01 0.0000000000e+00 0.0000000000e+00
5.0000000000e-01 0.0000000000e+00 0.0000000000e+00
5.1000000000e-01 0.0000000000e+00 0.0000000000e+00
5.2000000000e-01 0.0000000000e+00 0.0000000000e+00
5.3000000000e-01 0.0000000000e+00 0.0000000000e+00
5.4000000000e-01 0.0000000000e+00 0.0000000000e+00
5.5000000000e-01 0.0000000000e+00 0.0000000000e+00
5.6000000000e-01 0.0000000000e+00 0.0000000000e+00
5.7000000000e-01 0.0000000000e+00 0.0000000000e+00
5.8000000000e-01 0.0000000000e+00 0.0000000000e+00
5.9000000000e-01 0.0000000000e+00 0.0000000000e+00
6.0000000000e-01 0.0000000000e+00 0.0000000000e+00
6.1000000000e-01 0.0000000000e+00 0.0000000000e+00
6.2000000000e-01 0.0000000000e+00 0.0000000000e+00
6.3000000000e-01 0.0000000000e+00 0.0000000000e+00
6.4000000000e-01 0.0000000000e+00 0.0000000000e+00
6.5000000000e-01 0.0000000000e+00 0.0000000000e+00
6.6000000000e-01 0.0000000000e+00 0.0000000000e+00
6.7000000000e-01 0.0000000000e+00 0.0000000000e+00
6.8000000000e-01 0.0000000000e+00 0.0000000000e+00
6.9000000000e-01 0.0000000000e+00 0.0000000000e+00
7.0000000000e-01 0.0000000000e+00 0.0000000000e+00
7.1000000000e-01 0.0000000000e+00 0.0000000000e+00
7.2000000000e-01 0.0000000000e+00 0.0000000000e+00
7.3000000000e-01 0.0000000000e+00 0.0000000000e+00
7.4000000000e-01 0.0000000000e+00 0.0000000000e+00
7.5000000000e-01 0.0000000000e+00 0.0000000000e+00
7.6000000000e-01 0.0000000000e+00 0.0000000000e+00
7.7000000000e-01 0.0000000000e+00 0.0000000000e+00
7.8000000000e-01 0.0000000000e+00 0.0000000000e+00
7.9000000000e-01 0.0000000000e+00 0.0000000000e+00
8.0000000000e-01 0.0000000000e+00 0.0000000000e+00
8.1000000000e-01 0.0000000000e+00 0.0000000000e+00
8.2000000000e-01 0.0000000000e+00 0.0000000000e+00
8.3000000000e-01 0.0000000000e+00 0.0000000000e+00
8.4000000000e-01 0.0000000000e+00 0.0000000000e+00
8.5000000000e-01 0.0000000000e+00 0.0000000000e+00
8.6000000000e-01 0.0000000000e+00 0.0000000000e+00
8.7000000000e-01 0.0000000000e+00 0.0000000000e+00
8.8000000000e-01 0.0000000000e+00 0.0000000000e+00
8.9000000000e-01 0.0000000000e+00 0.0000000000e+00
9.0000000000e-01 0.0000000000e+00 0.0000000000e+00
9.1000000000e-01 0.0000000000e+00 0.0000000000e+00
9.2000000000e-01 0.0000000000e+00 0.0000000000e+00
9.3000000000e-01 0.0000000000e+00 0.0000000000e+00
9.4000000000e-01 0.0000000000e+00 0.0000000000e+00
9.5000000000e-01 0.0000000000e+00 0.0000000000e+00
9.6000000000e-01 0.0000000000e+00 0.0000000000e+00
9.7000000000e-01 0.0000000000e+00 0.0000000000e+00
9.8000000000e-01 0.0000000000e+00 0.0000000000e+00
9.9000000000e-01 0.0000000000e+00 0.0000000000e+00
1.0000000000e+00 0.0000000000e+00 0.0000000000e+00
0.0000000000e+00 1.0000000000e-02 0.0000000000e+00
1.0000000000e-02 1.0000000000e-02 0.0000000000e+00
2.0000000000e-02 1.0000000000e-02 0.0000000000e+00
3.0000000000e-02 1.0000000000e-02 0.0000000000e+00
4.0000000000e-02 1.0000000000e-02 0.0000000000e+00
5.0000000000e-02 1.0000000000e-02 0.0000000000e+00
6.0000000000e-02 1.0000000000e-02 0.0000000000e+00
7.0000000000e-02 1.0000000000e-02 0.0000000000e+00
8.0000000000e-02 1.0000000000e-02 0.0000000000e+00
9.0000000000e-02 1.0000000000e-02 0.0000000000e+00
1.0000000000e-01 1.0000000000e-02 0.0000000000e+00
1.1000000000e-01 1.0000000000e-02 0.0000000000e+00
1.2000000000e-01 1.0000000000e-02 0.0000000000e+00
1.3000000000e-01 1.0000000000e-02 0.0000000000e+00
1.4000000000e-01 1.0000000000e-02 0.0000000000e+00
1.5000000000e-01 1.0000000000e-02 0.0000000000e+00
1.6000000000e-01 1.0000000000e-02 0.0000000000e+00
1.7000000000e-01 1.0000000000e-02 0.0000000000e+00
1.8000000000e-01 1.0000000000e-02 0.0000000000e+00
1.9000000000e-01 1.0000000000e-02 0.0000000000e+00
2.0000000000e-01 1.0000000000e-02 0.0000000000e+00
2.1000000000e-01 1.0000000000e-02 0.0000000000e+00
2.2000000000e-01 1.0000000000e-02 0.0000000000e+00
2.3000000000e-01 1.0000000000e-02 0.0000000000e+00
2.4000000000e-01 1.0000000000e-02 0.0000000000e+00
2.5000000000e-01 1.0000000000e-02 0.0000000000e+00
2.6000000000e-01 1.0000000000e-02 0.0000000000e+00
2.7000000000e-01 1.0000000000e-02 0.0000000000e+00
2.8000000000e-01 1.0000000000e-02 0.0000000000e+00
2.9000000000e-01 1.0000000000e-02 0.0000000000e+00
3.0000000000e-01 1.0000000000e-02 0.0000000000e+00
3.1000000000e-01 1.0000000000e-02 0.0000000000e+00
3.2000000000e-01 1.0000000000e-02 0.0000000000e+00
3.3000000000e-01 1.0000000000e-02 0.0000000000e+00
3.4000000000e-01 1.0000000000e-02 0.0000000000e+00
3.5000000000e-01 1.0000000000e-02 0.0000000000e+00
3.6000000000e-01 1.0000000000e-02 0.0000000000e+00
3.7000000000e-01 1.0000000000e-02 0.0000000000e+00
3.8000000000e-01 1.0000000000e-02 0.0000000000e+00
3.9000000000e-01 1.0000000000e-02 0.0000000000e+00
4.0000000000e-01 1.0000000000e-02 0.0000000000e+00
4.1000000000e-01 1.0000000000e-02 0.0000000000e+00
4.2000000000e-01 1.0000000000e-02 0.0000000000e+00
4.3000000000e-01 1.0000000000e-02 0.0000000000e+00
4.4000000000e-01 1.0000000000e-02 0.0000000000e+00
4.5000000000e-01 1.0000000000e-02 0.0000000000e+00
4.6000000000e-01 1.0000000000e-02 0.0000000000e+00
4.7000000000e-01 1.0000000000e-02 0.0000000000e+00
4.8000000000e-01 1.0000000000e-02 0.0000000000e+00
4.9000000000e-01 1.0000000000e-02 0.0000000000e+00
5.0000000000e-01 1.0000000000e-02 0.0000000000e+00
5.1000000000e-01 1.0000000000e-02 0.0000000000e+00
5.2000000000e-01 1.0000000000e-02 0.0000000000e+00
5.3000000000e-01 1.0000000000e-02 0.0000000000e+00
5.4000000000e-01 1.0000000000e-02 0.0000000000e+00
5.5000000000e-01 1.0000000000e-02 0.0000000000e+00
5.6000000000e-01 1.0000000000e-02 0.0000000000e+00
5.7000000000e-01 1.0000000000e-02 0.0000000000e+00
5.8000000000e-01 1.0000000000e-02 0.0000000000e+00
5.9000000000e-01 1.0000000000e-02 0.0000000000e+00
6.0000000000e-01 1.0000000000e-02 0.0000000000e+00
6.1000000000e-01 1.0000000000e-02 0.0000000000e+00
6.2000000000e-01 1.0000000000e-02 0.0000000000e+00
6.3000000000e-01 1.0000000000e-02 0.0000000000e+00
6.4000000000e-01 1.0000000000e-02 0.0000000000e+00
6.5000000000e-01 1.0000000000e-02 0.0000000000e+00
6.6000000000e-01 1.0000000000e-02 0.0000000000e+00
6.7000000000e-01 1.0000000000e-02 0.0000000000e+00
6.8000000000e-01 1.0000000000e-02 0.0000000000e+00
6.9000000000e-01 1.0000000000e-02 0.0000000000e+00
7.0000000000e-01 1.0000000000e-02 0.0000000000e+00
7.1000000000e-01 1.0000000000e-02 0.0000000000e+00
7.2000000000e-01 1.0000000000e-02 0.0000000000e+00
7.3000000000e-01 1.0000000000e-02 0.0000000000e+00
7.4000000000e-01 1.0000000000e-02 0.0000000000e+00
7.5000000000e-01 1.0000000000e-02 0.0000000000e+00
7.6000000000e-01 1.0000000000e-02 0.0000000000e+00
7.7000000000e-01 1.0000000000e-02 0.0000000000e+00
7.8000000000e-01 1.0000000000e-02 0.0000000000e+00
7.9000000000e-01 1.0000000000e-02 0.0000000000e+00
8.0000000000e-01 1.0000000000e-02 0.0000000000e+00
8.1000000000e-01 1.0000000000e-02 0.0000000000e+00
8.2000000000e-01 1.0000000000e-02 0.0000000000e+00
8.3000000000e-01 1.0000000000e-02 0.0000000000e+00
8.4000000000e-01 1.0000000000e-02 0.0000000000e+00
8.5000000000e-01 1.0000000000e-02 0.0000000000e+00
8.6000000000e-01 1.0000000000e-02 0.0000000000e+00
8.7000000000e-01 1.0000000000e-02 0.0000000000e+00
8.8000000000e-01 1.0000000000e-02 0.0000000000e+00
8.9000000000e-01 1.0000000000e-02 0.0000000000e+00
9.0000000000e-01 1.0000000000e-02 0.0000000000e+00
9.1000000000e-01 1.0000000000e-02 0.0000000000e+00
9.2000000000e-01 1.0000000000e-02 0.0000000000e+00
[...]
CELL_DATA 10000

SCALARS massDensity float
LOOKUP_TABLE default
1.2000517212e+00
1.2000314219e+00
1.2000879921e+00
1.2001619358e+00
1.2002529978e+00
1.2003605926e+00
1.2004837746e+00
1.2006212840e+00
1.2007716038e+00
1.2009330247e+00
1.2011036998e+00
1.2012817008e+00
1.2014650646e+00
1.2016518412e+00
1.2018401303e+00
1.2020281204e+00
1.2022141159e+00
1.2023965654e+00
1.2025740785e+00
1.2027454428e+00
1.2029096299e+00
1.2030658024e+00
1.2032133093e+00
1.2033516840e+00
1.2034806318e+00
1.2036000206e+00
1.2037098634e+00
1.2038103037e+00
1.2039015959e+00
1.2039840891e+00
1.2040582064e+00
1.2041244295e+00
1.2041832803e+00
1.2042353068e+00
1.2042810679e+00
1.2043211231e+00
1.2043560200e+00
1.2043862880e+00
1.2044124298e+00
1.2044349175e+00
1.2044541884e+00
1.2044706434e+00
1.2044846452e+00
1.2044965195e+00
1.2045065548e+00
1.2045150046e+00
1.2045220893e+00
1.2045279985e+00
1.2045328935e+00
1.2045369105e+00
1.2045401628e+00
1.2045427438e+00
1.2045447292e+00
1.2045461804e+00
1.2045471452e+00
1.2045476615e+00
1.2045477579e+00
1.2045474561e+00
1.2045467718e+00
1.2045457170e+00
1.2045442994e+00
1.2045425255e+00
1.2045403993e+00
1.2045379247e+00
1.2045351047e+00
1.2045319433e+00
1.2045284444e+00
1.2045246133e+00
1.2045204559e+00
1.2045159803e+00
1.2045111951e+00
1.2045061113e+00
1.2045007407e+00
1.2044950976e+00
1.2044891968e+00
1.2044830559e+00
1.2044766929e+00
1.2044701279e+00
1.2044633818e+00
1.2044564775e+00
1.2044494379e+00
1.2044422880e+00
1.2044350528e+00
1.2044277587e+00
1.2044204322e+00
1.2044131008e+00
1.2044057916e+00
1.2043985329e+00
1.2043913523e+00
1.2043842780e+00
1.2043773376e+00
1.2043705593e+00
1.2043639703e+00
1.2043575981e+00
1.2043514697e+00
1.2043456119e+00
1.2043400522e+00
1.2043348227e+00
1.2043299709e+00
1.2043256295e+00
1.2000314219e+00
1.1999984894e+00
1.2000481969e+00
1.2001173471e+00
1.2002050258e+00
1.2003101927e+00
1.2004316070e+00
1.2005678137e+00
1.2007171713e+00
1.2008778825e+00
1.2010480424e+00
1.2012256768e+00
1.2014087911e+00
1.2015954062e+00
1.2017836020e+00
1.2019715467e+00
1.2021575309e+00
1.2023399883e+00
1.2025175193e+00
1.2026889006e+00
1.2028530985e+00
1.2030092680e+00
1.2031567555e+00
1.2032950898e+00
1.2034239758e+00
1.2035432790e+00
1.2036530134e+00
1.2037533219e+00
1.2038444611e+00
1.2039267805e+00
1.2040007062e+00
1.2040667212e+00
1.2041253509e+00
1.2041771452e+00
1.2042226669e+00
1.2042624779e+00
1.2042971302e+00
1.2043271560e+00
1.2043530624e+00
1.2043753249e+00
1.2043943856e+00
1.2044106488e+00
1.2044244822e+00
1.2044362153e+00
1.2044461415e+00
1.2044545185e+00
1.2044615712e+00
1.2044674934e+00
1.2044724511e+00
1.2044765842e+00
1.2044800104e+00
1.2044828267e+00
1.2044851129e+00
1.2044869329e+00
1.2044883384e+00
1.2044893694e+00
1.2044900572e+00
1.2044904252e+00
1.2044904911e+00
1.2044902671e+00
1.2044897626e+00
1.2044889831e+00
1.2044879331e+00
1.2044866149e+00
1.2044850307e+00
1.2044831818e+00
1.2044810703e+00
1.2044786978e+00
1.2044760674e+00
1.2044731825e+00
1.2044700481e+00
1.2044666693e+00
1.2044630537e+00
1.2044592089e+00
1.2044551450e+00
1.2044508721e+00
1.2044464027e+00
1.2044417497e+00
1.2044369280e+00
1.2044319525e+00
1.2044268403e+00
1.2044216085e+00
1.2044162761e+00
1.2044108617e+00
1.2044053857e+00
1.2043998680e+00
1.2043943300e+00
1.2043887924e+00
1.2043832769e+00
1.2043778045e+00
1.2043723965e+00
1.2043670731e+00
1.2043618547e+00
1.2043567593e+00
1.2043518040e+00
1.2043470026e+00
1.2043423653e+00
1.2043378961e+00
1.2043335908e+00
1.2043302609e+00
1.2000879921e+00
1.2000481969e+00
1.2000947638e+00
1.2001613546e+00
1.2002468283e+00
1.2003499765e+00
1.2004694439e+00
1.2006037119e+00
1.2007511016e+00
1.2009098057e+00
1.2010779166e+00
1.2012534716e+00
1.2014344865e+00
1.2016190006e+00
1.2018051072e+00
1.2019909930e+00
1.2021749609e+00
1.2023554607e+00
1.2025311019e+00
1.2027006737e+00
1.2028631481e+00
1.2030176885e+00
1.2031636438e+00
1.2033005474e+00
1.2034281038e+00
1.2035461802e+00
1.2036547875e+00
1.2037540681e+00
1.2038442740e+00
1.2039257521e+00
1.2039989230e+00
1.2040642663e+00
1.2041223014e+00
1.2041735742e+00
1.2042186417e+00
1.2042580617e+00
1.2042923808e+00
1.2043221275e+00
1.2043478041e+00
1.2043698830e+00
1.2043888021e+00
1.2044049633e+00
1.2044187308e+00
1.2044304324e+00
1.2044403587e+00
1.2044487660e+00
1.2044558773e+00
1.2044618853e+00
1.2044669546e+00
1.2044712244e+00
1.2044748111e+00
1.2044778113e+00
1.2044803035e+00
1.2044823516e+00
1.2044840060e+00
1.2044853064e+00
1.2044862828e+00
1.2044869583e+00
1.2044873492e+00
1.2044874672e+00
1.2044873198e+00
1.2044869121e+00
1.2044862464e+00
1.2044853243e+00
1.2044841457e+00
1.2044827108e+00
1.2044810192e+00
1.2044790713e+00
1.2044768676e+00
1.2044744098e+00
1.2044717000e+00
1.2044687422e+00
1.2044655407e+00
1.2044621018e+00
1.2044584323e+00
1.2044545413e+00
1.2044504380e+00
1.2044461342e+00
1.2044416418e+00
1.2044369748e+00
1.2044321478e+00
1.2044271769e+00
1.2044220788e+00
1.2044168718e+00
1.2044115740e+00
1.2044062054e+00
1.2044007855e+00
1.2043953352e+00
1.2043898746e+00
1.2043844248e+00
1.2043790057e+00
1.2043736377e+00
1.2043683390e+00
1.2043631271e+00
1.2043580163e+00
1.2043530179e+00
1.2043481374e+00
1.2043433735e+00
1.2043387136e+00
1.2043361895e+00
1.2001619358e+00
1.2001173471e+00
1.2001613546e+00
1.2002254262e+00
1.2003084127e+00
1.2004090576e+00
1.2005259665e+00
1.2006575911e+00
1.2008022446e+00
1.2009581186e+00
1.2011233206e+00
1.2012959027e+00
1.2014739064e+00
1.2016553914e+00
1.2018384790e+00
1.2020213764e+00
1.2022024123e+00
1.2023800535e+00
1.2025529309e+00
1.2027198460e+00
1.2028797863e+00
1.2030319229e+00
1.2031756145e+00
1.2033103972e+00
1.2034359802e+00
1.2035522293e+00
1.2036591560e+00
1.2037568980e+00
1.2038457045e+00
1.2039259155e+00
1.2039979470e+00
1.2040622701e+00
1.2041193982e+00
1.2041698687e+00
1.2042142321e+00
1.2042530378e+00
1.2042868260e+00
1.2043161179e+00
1.2043414099e+00
1.2043631680e+00
1.2043818250e+00
1.2043977777e+00
1.2044113865e+00
1.2044229746e+00
1.2044328300e+00
1.2044412055e+00
1.2044483223e+00
1.2044543705e+00
1.2044595132e+00
1.2044638880e+00
1.2044676102e+00
1.2044707751e+00
1.2044734606e+00
1.2044757295e+00
1.2044776315e+00
1.2044792055e+00
1.2044804809e+00
1.2044814796e+00
1.2044822173e+00
1.2044827044e+00
1.2044829477e+00
1.2044829506e+00
1.2044827144e+00
1.2044822386e+00
1.2044815220e+00
1.2044805625e+00
1.2044793581e+00
1.2044779067e+00
1.2044762069e+00
1.2044742575e+00
1.2044720589e+00
1.2044696117e+00
1.2044669182e+00
1.2044639813e+00
1.2044608060e+00
1.2044573976e+00
1.2044537637e+00
1.2044499123e+00
1.2044458538e+00
1.2044415987e+00
1.2044371599e+00
1.2044325507e+00
1.2044277863e+00
1.2044228821e+00
1.2044178554e+00
1.2044127237e+00
1.2044075059e+00
1.2044022205e+00
1.2043968876e+00
1.2043915264e+00
1.2043861566e+00
1.2043807966e+00
1.2043754648e+00
1.2043701766e+00
1.2043649459e+00
1.2043597819e+00
1.2043546896e+00
1.2043496660e+00
1.2043446994e+00
1.2043434027e+00
1.2002529978e+00
1.2002050258e+00
1.2002468283e+00
1.2003084127e+00
1.2003886944e+00
1.2004864404e+00
1.2006002600e+00
1.2007286147e+00
1.2008698269e+00
1.2010221108e+00
1.2011835953e+00
1.2013523662e+00
1.2015264926e+00
1.2017040720e+00
1.2018832547e+00
1.2020622838e+00
1.2022395140e+00
1.2024134431e+00
1.2025827224e+00
1.2027461779e+00
1.2029028112e+00
1.2030518099e+00
1.2031925404e+00
1.2033245485e+00
1.2034475447e+00
1.2035613983e+00
1.2036661172e+00
1.2037618374e+00
1.2038488009e+00
1.2039273425e+00
1.2039978682e+00
1.2040608418e+00
1.2041167656e+00
1.2041661683e+00
1.2042095894e+00
1.2042475693e+00
1.2042806379e+00
1.2043093078e+00
1.2043340665e+00
1.2043553724e+00
1.2043736507e+00
1.2043892919e+00
1.2044026503e+00
1.2044140444e+00
1.2044237571e+00
1.2044320379e+00
1.2044391042e+00
1.2044451438e+00
1.2044503171e+00
1.2044547601e+00
1.2044585864e+00
1.2044618900e+00
1.2044647477e+00
1.2044672214e+00
1.2044693600e+00
1.2044712014e+00
1.2044727746e+00
1.2044741004e+00
1.2044751938e+00
1.2044760644e+00
1.2044767176e+00
1.2044771558e+00
1.2044773790e+00
1.2044773852e+00
1.2044771713e+00
1.2044767337e+00
1.2044760679e+00
1.2044751700e+00
1.2044740357e+00
1.2044726620e+00
1.2044710458e+00
1.2044691854e+00
1.2044670798e+00
1.2044647294e+00
1.2044621353e+00
1.2044593004e+00
1.2044562284e+00
1.2044529250e+00
1.2044493964e+00
1.2044456511e+00
1.2044416981e+00
1.2044375486e+00
1.2044332141e+00
1.2044287084e+00
1.2044240456e+00
1.2044192416e+00
1.2044143125e+00
1.2044092760e+00
1.2044041496e+00
1.2043989517e+00
1.2043937002e+00
1.2043884132e+00
1.2043831072e+00
1.2043777979e+00
1.2043724980e+00
1.2043672174e+00
1.2043619612e+00
1.2043567292e+00
1.2043515137e+00
1.2043518381e+00
1.2003605926e+00
1.2003101927e+00
1.2003499765e+00
1.2004090576e+00
1.2004864404e+00
1.2005809407e+00
1.2006912071e+00
1.2008157288e+00
1.2009528644e+00
1.2011008593e+00
1.2012578852e+00
1.2014220642e+00
1.2015915127e+00
1.2017643663e+00
1.2019388215e+00
1.2021131569e+00
1.2022857689e+00
1.2024551848e+00
1.2026200902e+00
1.2027793330e+00
1.2029319400e+00
1.2030771127e+00
1.2032142337e+00
1.2033428546e+00
1.2034626941e+00
1.2035736202e+00
1.2036756419e+00
1.2037688885e+00
1.2038535976e+00
1.2039300937e+00
1.2039987744e+00
1.2040600908e+00
1.2041145349e+00
1.2041626219e+00
1.2042048799e+00
1.2042418363e+00
1.2042740100e+00
1.2043019015e+00
1.2043259881e+00
1.2043467180e+00
1.2043645078e+00
1.2043797393e+00
1.2043927599e+00
1.2044038814e+00
1.2044133813e+00
1.2044215041e+00
1.2044284633e+00
1.2044344430e+00
1.2044396012e+00
1.2044440711e+00
1.2044479646e+00
1.2044513742e+00
1.2044543754e+00
1.2044570292e+00
1.2044593835e+00
1.2044614757e+00
1.2044633338e+00
1.2044649782e+00
1.2044664230e+00
1.2044676769e+00
1.2044687446e+00
1.2044696274e+00
1.2044703240e+00
1.2044708310e+00
1.2044711439e+00
1.2044712569e+00
1.2044711640e+00
1.2044708586e+00
1.2044703345e+00
1.2044695857e+00
1.2044686065e+00
1.2044673921e+00
1.2044659386e+00
1.2044642428e+00
1.2044623029e+00
1.2044601178e+00
1.2044576882e+00
1.2044550157e+00
1.2044521035e+00
1.2044489558e+00
1.2044455789e+00
1.2044419799e+00
1.2044381677e+00
1.2044341522e+00
1.2044299452e+00
1.2044255591e+00
1.2044210082e+00
1.2044163070e+00
1.2044114717e+00
1.2044065181e+00
1.2044014633e+00
1.2043963235e+00
1.2043911149e+00
1.2043858520e+00
1.2043805483e+00
1.2043752140e+00
1.2043698568e+00
1.2043644796e+00
1.2043590815e+00
1.2043613949e+00
1.2004837746e+00
1.2004316070e+00
1.2004694439e+00
1.2005259665e+00
1.2006002600e+00
1.2006912071e+00
1.2007975053e+00
1.2009176965e+00
1.2010501825e+00
1.2011932623e+00
1.2013451534e+00
1.2015040350e+00
1.2016680708e+00
1.2018354531e+00
1.2020044237e+00
1.2021733137e+00
1.2023405588e+00
1.2025047314e+00
1.2026645478e+00
1.2028188911e+00
1.2029668095e+00
1.2031075290e+00
1.2032404439e+00
1.2033651200e+00
1.2034812789e+00
1.2035887936e+00
1.2036876688e+00
1.2037780314e+00
1.2038601091e+00
1.2039342183e+00
1.2040007434e+00
1.2040601240e+00
1.2041128367e+00
1.2041593834e+00
1.2042002768e+00
1.2042360307e+00
1.2042671491e+00
1.2042941199e+00
1.2043174073e+00
1.2043374481e+00
1.2043546477e+00
1.2043693788e+00
1.2043819795e+00
1.2043927544e+00
1.2044019741e+00
1.2044098775e+00
1.2044166730e+00
1.2044225410e+00
1.2044276358e+00
1.2044320881e+00
1.2044360076e+00
1.2044394848e+00
1.2044425942e+00
1.2044453953e+00
1.2044479357e+00
1.2044502516e+00
1.2044523707e+00
1.2044543128e+00
1.2044560914e+00
1.2044577146e+00
1.2044591863e+00
1.2044605070e+00
1.2044616743e+00
1.2044626837e+00
1.2044635292e+00
1.2044642035e+00
1.2044646987e+00
1.2044650062e+00
1.2044651173e+00
1.2044650236e+00
1.2044647167e+00
1.2044641888e+00
1.2044634328e+00
1.2044624422e+00
1.2044612116e+00
1.2044597366e+00
1.2044580136e+00
1.2044560409e+00
1.2044538174e+00
1.2044513439e+00
1.2044486222e+00
1.2044456560e+00
1.2044424501e+00
1.2044390113e+00
1.2044353472e+00
1.2044314675e+00
1.2044273828e+00
1.2044231055e+00
1.2044186483e+00
1.2044140257e+00
1.2044092520e+00
1.2044043425e+00
1.2043993120e+00
1.2043941750e+00
1.2043889446e+00
1.2043836329e+00
1.2043782493e+00
1.2043728017e+00
1.2043672945e+00
1.2043719390e+00
1.2006212840e+00
1.2005678137e+00
1.2006037119e+00
1.2006575911e+00
1.2007286147e+00
1.2008157288e+00
1.2009176965e+00
1.2010331147e+00
1.2011604493e+00
1.2012980546e+00
1.2014442147e+00
1.2015971649e+00
1.2017551362e+00
1.2019163753e+00
1.2020791878e+00
1.2022419538e+00
1.2024031651e+00
1.2025614348e+00
1.2027155249e+00
1.2028643488e+00
1.2030069885e+00
1.2031426891e+00
1.2032708668e+00
1.2033910958e+00
1.2035031083e+00
1.2036067766e+00
1.2037021065e+00
1.2037892168e+00
1.2038683289e+00
1.2039397459e+00
1.2040038406e+00
1.2040610364e+00
1.2041117953e+00
1.2041566018e+00
1.2041959527e+00
1.2042303446e+00
1.2042602664e+00
1.2042861898e+00
1.2043085651e+00
1.2043278155e+00
1.2043443342e+00
1.2043584826e+00
1.2043705890e+00
1.2043809490e+00
1.2043898257e+00
1.2043974513e+00
1.2044040287e+00
1.2044097336e+00
1.2044147163e+00
1.2044191046e+00
1.2044230054e+00
1.2044265077e+00
1.2044296842e+00
1.2044325935e+00
1.2044352820e+00
1.2044377858e+00
1.2044401317e+00
1.2044423394e+00
1.2044444216e+00
1.2044463865e+00
1.2044482371e+00
1.2044499735e+00
1.2044515924e+00
1.2044530886e+00
1.2044544548e+00
1.2044556823e+00
1.2044567617e+00
1.2044576825e+00
1.2044584341e+00
1.2044590056e+00
1.2044593860e+00
1.2044595648e+00
1.2044595317e+00
1.2044592771e+00
1.2044587920e+00
1.2044580683e+00
1.2044570988e+00
1.2044558775e+00
1.2044543997e+00
1.2044526616e+00
1.2044506613e+00
1.2044483980e+00
1.2044458727e+00
1.2044430877e+00
1.2044400473e+00
1.2044367568e+00
1.2044332238e+00
1.2044294568e+00
1.2044254661e+00
1.2044212628e+00
1.2044168595e+00
1.2044122691e+00
1.2044075056e+00
1.2044025822e+00
1.2043975128e+00
1.2043923100e+00
1.2043869860e+00
1.2043815518e+00
1.2043760178e+00
1.2043833064e+00
1.2007716038e+00
1.2007171713e+00
1.2007511016e+00
1.2008022446e+00
1.2008698269e+00
1.2009528644e+00
1.2010501825e+00
1.2011604493e+00
1.2012821937e+00
1.2014138446e+00
1.2015537504e+00
1.2017002227e+00
1.2018515557e+00
1.2020060702e+00
1.2021621306e+00
1.2023181841e+00
1.2024727732e+00
1.2026245677e+00
1.2027723696e+00
1.2029151362e+00
1.2030519774e+00
1.2031821687e+00
1.2033051420e+00
1.2034204890e+00
1.2035279463e+00
1.2036273923e+00
1.2037188277e+00
1.2038023681e+00
1.2038782228e+00
1.2039466847e+00
1.2040081101e+00
1.2040629075e+00
1.2041115199e+00
1.2041544148e+00
1.2041920695e+00
1.2042249633e+00
1.2042535662e+00
1.2042783338e+00
1.2042996997e+00
1.2043180725e+00
1.2043338314e+00
1.2043473254e+00
1.2043588717e+00
1.2043687560e+00
1.2043772328e+00
1.2043845269e+00
1.2043908350e+00
1.2043963274e+00
1.2044011502e+00
1.2044054275e+00
1.2044092639e+00
1.2044127457e+00
1.2044159445e+00
1.2044189173e+00
1.2044217101e+00
1.2044243581e+00
1.2044268881e+00
1.2044293190e+00
1.2044316640e+00
1.2044339305e+00
1.2044361219e+00
1.2044382374e+00
1.2044402738e+00
1.2044422247e+00
1.2044440825e+00
1.2044458372e+00
1.2044474783e+00
1.2044489937e+00
1.2044503712e+00
1.2044515976e+00
1.2044526599e+00
1.2044535449e+00
1.2044542396e+00
1.2044547311e+00
1.2044550072e+00
1.2044550564e+00
1.2044548677e+00
1.2044544311e+00
1.2044537378e+00
1.2044527800e+00
1.2044515515e+00
1.2044500471e+00
1.2044482633e+00
1.2044461985e+00
1.2044438523e+00
1.2044412264e+00
1.2044383240e+00
1.2044351500e+00
1.2044317111e+00
1.2044280155e+00
1.2044240728e+00
1.2044198939e+00
1.2044154905e+00
1.2044108754e+00
1.2044060615e+00
1.2044010627e+00
1.2043958924e+00
1.2043905648e+00
1.2043850939e+00
1.2043953072e+00
1.2009330247e+00
1.2008778825e+00
1.2009098057e+00
1.2009581186e+00
1.2010221108e+00
1.2011008593e+00
1.2011932623e+00
1.2012980546e+00
1.2014138446e+00
1.2015391316e+00
1.2016723470e+00
1.2018118737e+00
1.2019560885e+00
1.2021033802e+00
1.2022521903e+00
1.2024010267e+00
1.2025484995e+00
1.2026933283e+00
1.2028343699e+00
1.2029706188e+00
1.2031012251e+00
1.2032254882e+00
1.2033428655e+00
1.2034529598e+00
1.2035555199e+00
1.2036504239e+00
1.2037376736e+00
1.2038173751e+00
1.2038897299e+00
1.2039550153e+00
1.2040135734e+00
1.2040657932e+00
1.2041121001e+00
1.2041529404e+00
1.2041887726e+00
1.2042200549e+00
1.2042472389e+00
1.2042707608e+00
1.2042910372e+00
1.2043084598e+00
1.2043233933e+00
1.2043361727e+00
1.2043471032e+00
1.2043564596e+00
1.2043644868e+00
1.2043714018e+00
1.2043773940e+00
1.2043826281e+00
1.2043872455e+00
1.2043913664e+00
1.2043950922e+00
1.2043985073e+00
1.2044016810e+00
1.2044046698e+00
1.2044075182e+00
1.2044102614e+00
1.2044129255e+00
1.2044155300e+00
1.2044180874e+00
1.2044206059e+00
1.2044230881e+00
1.2044255341e+00
1.2044279398e+00
1.2044302993e+00
1.2044326039e+00
1.2044348436e+00
1.2044370064e+00
1.2044390798e+00
1.2044410496e+00
1.2044429015e+00
1.2044446204e+00
1.2044461909e+00
1.2044475975e+00
1.2044488248e+00
1.2044498574e+00
1.2044506805e+00
1.2044512797e+00
1.2044516414e+00
1.2044517526e+00
1.2044516016e+00
1.2044511778e+00
1.2044504718e+00
1.2044494758e+00
1.2044481834e+00
1.2044465901e+00
1.2044446930e+00
1.2044424911e+00
1.2044399854e+00
1.2044371785e+00
1.2044340751e+00
1.2044306816e+00
1.2044270060e+00
1.2044230579e+00
1.2044188483e+00
1.2044143896e+00
1.2044096950e+00
1.2044047792e+00
1.2043996578e+00
1.2043943479e+00
1.2044077280e+00
1.2011036998e+00
1.2010480424e+00
1.2010779166e+00
1.2011233206e+00
1.2011835953e+00
1.2012578852e+00
1.2013451534e+00
1.2014442147e+00
1.2015537504e+00
1.2016723470e+00
1.2017985127e+00
1.2019307195e+00
1.2020674198e+00
1.2022070884e+00
1.2023482365e+00
1.2024894498e+00
1.2026293980e+00
1.2027668663e+00
1.2029007582e+00
1.2030301188e+00
1.2031541310e+00
1.2032721292e+00
1.2033835891e+00
1.2034881335e+00
1.2035855168e+00
1.2036756236e+00
1.2037584504e+00
1.2038340991e+00
1.2039027578e+00
1.2039646913e+00
1.2040202229e+00
1.2040697242e+00
1.2041135988e+00
1.2041522729e+00
1.2041861825e+00
1.2042157654e+00
1.2042414516e+00
1.2042636581e+00
1.2042827820e+00
1.2042991980e+00
1.2043132543e+00
1.2043252714e+00
1.2043355412e+00
1.2043443268e+00
1.2043518632e+00
1.2043583582e+00
1.2043639941e+00
1.2043689290e+00
1.2043732993e+00
1.2043772210e+00
1.2043807922e+00
1.2043840946e+00
1.2043871961e+00
1.2043901514e+00
1.2043930048e+00
1.2043957904e+00
1.2043985348e+00
1.2044012570e+00
1.2044039704e+00
1.2044066827e+00
1.2044093977e+00
1.2044121150e+00
1.2044148314e+00
1.2044175407e+00
1.2044202346e+00
1.2044229023e+00
1.2044255323e+00
1.2044281105e+00
1.2044306227e+00
1.2044330528e+00
1.2044353848e+00
1.2044376011e+00
1.2044396847e+00
1.2044416174e+00
1.2044433818e+00
1.2044449597e+00
1.2044463340e+00
1.2044474873e+00
1.2044484034e+00
1.2044490664e+00
1.2044494618e+00
1.2044495760e+00
1.2044493968e+00
1.2044489134e+00
1.2044481168e+00
1.2044469996e+00
1.2044455565e+00
1.2044437839e+00
1.2044416805e+00
1.2044392468e+00
1.2044364857e+00
1.2044334020e+00
1.2044300023e+00
1.2044262955e+00
1.2044222921e+00
1.2044180047e+00
1.2044134475e+00
1.2044086370e+00
1.2044035913e+00
1.2044203365e+00
1.2012817008e+00
1.2012256768e+00
1.2012534716e+00
1.2012959027e+00
1.2013523662e+00
1.2014220642e+00
1.2015040350e+00
1.2015971649e+00
1.2017002227e+00
1.2018118737e+00
1.2019307195e+00
1.2020553129e+00
1.2021841993e+00
1.2023159308e+00
1.2024491051e+00
1.2025823767e+00
1.2027144908e+00
1.2028442890e+00
1.2029707360e+00
1.2030929188e+00
1.2032100651e+00
1.2033215361e+00
1.2034268362e+00
1.2035256004e+00
1.2036175969e+00
1.2037027099e+00
1.2037809369e+00
1.2038523694e+00
1.2039171864e+00
1.2039756355e+00
1.2040280238e+00
1.2040747012e+00
1.2041160513e+00
1.2041524768e+00
1.2041843919e+00
1.2042122112e+00
1.2042363435e+00
1.2042571841e+00
1.2042751108e+00
1.2042904793e+00
1.2043036209e+00
1.2043148406e+00
1.2043244163e+00
1.2043325987e+00
1.2043396119e+00
1.2043456544e+00
1.2043509003e+00
1.2043555012e+00
1.2043595877e+00
1.2043632716e+00
1.2043666473e+00
1.2043697941e+00
1.2043727774e+00
1.2043756510e+00
1.2043784580e+00
1.2043812327e+00
1.2043840009e+00
1.2043867825e+00
1.2043895907e+00
1.2043924343e+00
1.2043953172e+00
1.2043982402e+00
1.2044012000e+00
1.2044041916e+00
1.2044072064e+00
1.2044102347e+00
1.2044132642e+00
1.2044162815e+00
1.2044192712e+00
1.2044222175e+00
1.2044251025e+00
1.2044279086e+00