# vtk DataFile Version 2.0
Blank
ASCII
DATASET STRUCTURED_GRID
DIMENSIONS 101 101 2
POINTS 20402 float
0.0000000000e+00 0.0000000000e+00 0.0000000000e+00
1.0000000000e-02 0.0000000000e+00 0.0000000000e+00
2.0000000000e-02 0.0000000000e+00 0.0000000000e+00
3.0000000000e-02 0.0000000000e+00 0.0000000000e+00
4.0000000000e-02 0.0000000000e+00 0.0000000000e+00
5.0000000000e-02 0.0000000000e+00 0.0000000000e+00
6.0000000000e-02 0.0000000000e+00 0.0000000000e+00
7.0000000000e-02 0.0000000000e+00 0.0000000000e+00
8.0000000000e-02 0.0000000000e+00 0.0000000000e+00
9.0000000000e-02 0.0000000000e+00 0.0000000000e+00
1.0000000000e-01 0.0000000000e+00 0.0000000000e+00
1.1000000000e-01 0.0000000000e+00 0.0000000000e+00
1.2000000000e-01 0.0000000000e+00 0.0000000000e+00
1.3000000000e-01 0.0000000000e+00 0.0000000000e+00
1.4000000000e-01 0.0000000000e+00 0.0000000000e+00
1.5000000000e-01 0.0000000000e+00 0.0000000000e+00
1.6000000000e-01 0.0000000000e+00 0.0000000000e+00
1.7000000000e-01 0.0000000000e+00 0.0000000000e+00
1.8000000000e-01 0.0000000000e+00 0.0000000000e+00
1.9000000000e-01 0.0000000000e+00 0.0000000000e+00
2.0000000000e-01 0.0000000000e+00 0.0000000000e+00
2.1000000000e-01 0.0000000000e+00 0.0000000000e+00
2.2000000000e-01 0.0000000000e+00 0.0000000000e+00
2.3000000000e-01 0.0000000000e+00 0.0000000000e+00
2.4000000000e-01 0.0000000000e+00 0.0000000000e+00
2.5000000000e-01 0.0000000000e+00 0.0000000000e+00
2.6000000000e-01 0.0000000000e+00 0.0000000000e+00
2.7000000000e-01 0.0000000000e+00 0.0000000000e+00
2.8000000000e-01 0.0000000000e+00 0.0000000000e+00
2.9000000000e-01 0.0000000000e+00 0.0000000000e+00
3.0000000000e-01 0.0000000000e+00 0.0000000000e+00
3.1000000000e-01 0.0000000000e+00 0.0000000000e+00
3.2000000000e-01 0.0000000000e+00 0.0000000000e+00
3.3000000000e-01 0.0000000000e+00 0.0000000000e+00
3.4000000000e-01 0.0000000000e+00 0.0000000000e+00
3.5000000000e-01 0.0000000000e+00 0.0000000000e+00
3.6000000000e-01 0.0000000000e+00 0.0000000000e+00
3.7000000000e-01 0.0000000000e+00 0.0000000000e+00
3.8000000000e-01 0.0000000000e+00 0.0000000000e+00
3.9000000000e-01 0.0000000000e+00 0.0000000000e+00
4.0000000000e-01 0.0000000000e+00 0.0000000000e+00
4.1000000000e-01 0.0000000000e+00 0.0000000000e+00
4.2000000000e-01 0.0000000000e+00 0.0000000000e+00
4.3000000000e-01 0.0000000000e+00 0.0000000000e+00
4.4000000000e-01 0.0000000000e+00 0.0000000000e+00
4.5000000000e-01 0.0000000000e+00 0.0000000000e+00
4.6000000000e-01 0.0000000000e+00 0.0000000000e+00
4.7000000000e-01 0.0000000000e+00 0.0000000000e+00
4.8000000000e-01 0.0000000000e+00 0.0000000000e+00
4.9000000000e-01 0.0000000000e+00 0.0000000000e+00
5.0000000000e-01 0.0000000000e+00 0.0000000000e+00
5.1000000000e-01 0.0000000000e+00 0.0000000000e+00
5.2000000000e-01 0.0000000000e+00 0.0000000000e+00
5.3000000000e-01 0.0000000000e+00 0.0000000000e+00
5.4000000000e-01 0.0000000000e+00 0.0000000000e+00
5.5000000000e-01 0.0000000000e+00 0.0000000000e+00
5.6000000000e-01 0.0000000000e+00 0.0000000000e+00
5.7000000000e-01 0.0000000000e+00 0.0000000000e+00
5.8000000000e-01 0.0000000000e+00 0.0000000000e+00
5.9000000000e-01 0.0000000000e+00 0.0000000000e+00
6.0000000000e-01 0.0000000000e+00 0.0000000000e+00
6.1000000000e-01 0.0000000000e+00 0.0000000000e+00
6.2000000000e-01 0.0000000000e+00 0.0000000000e+00
6.3000000000e-01 0.0000000000e+00 0.0000000000e+00
6.4000000000e-01 0.0000000000e+00 0.0000000000e+00
6.5000000000e-01 0.0000000000e+00 0.0000000000e+00
6.6000000000e-01 0.0000000000e+00 0.0000000000e+00
6.7000000000e-01 0.0000000000e+00 0.0000000000e+00
6.8000000000e-01 0.0000000000e+00 0.0000000000e+00
6.9000000000e-01 0.0000000000e+00 0.0000000000e+00
7.0000000000e-01 0.0000000000e+00 0.0000000000e+00
7.1000000000e-01 0.0000000000e+00 0.0000000000e+00
7.2000000000e-01 0.0000000000e+00 0.0000000000e+00
7.3000000000e-01 0.0000000000e+00 0.0000000000e+00
7.4000000000e-01 0.0000000000e+00 0.0000000000e+00
7.5000000000e-01 0.0000000000e+00 0.0000000000e+00
7.6000000000e-01 0.0000000000e+00 0.0000000000e+00
7.7000000000e-01 0.0000000000e+00 0.0000000000e+00
7.8000000000e-01 0.0000000000e+00 0.0000000000e+00
7.9000000000e-01 0.0000000000e+00 0.0000000000e+00
8.0000000000e-01 0.0000000000e+00 0.0000000000e+00
8.1000000000e-01 0.0000000000e+00 0.0000000000e+00
8.2000000000e-01 0.0000000000e+00 0.0000000000e+00
8.3000000000e-01 0.0000000000e+00 0.0000000000e+00
8.4000000000e-01 0.0000000000e+00 0.0000000000e+00
8.5000000000e-01 0.0000000000e+00 0.0000000000e+00
8.6000000000e-01 0.0000000000e+00 0.0000000000e+00
8.7000000000e-01 0.0000000000e+00 0.0000000000e+00
8.8000000000e-01 0.0000000000e+00 0.0000000000e+00
8.9000000000e-01 0.0000000000e+00 0.0000000000e+00
9.0000000000e-01 0.0000000000e+00 0.0000000000e+00
9.1000000000e-01 0.0000000000e+00 0.0000000000e+00
9.2000000000e-01 0.0000000000e+00 0.0000000000e+00
9.3000000000e-01 0.0000000000e+00 0.0000000000e+00
9.4000000000e-01 0.0000000000e+00 0.0000000000e+00
9.5000000000e-01 0.0000000000e+00 0.0000000000e+00
9.6000000000e-01 0.0000000000e+00 0.0000000000e+00
9.7000000000e-01 0.0000000000e+00 0.0000000000e+00
9.8000000000e-01 0.0000000000e+00 0.0000000000e+00
9.9000000000e-01 0.0000000000e+00 0.0000000000e+00
1.0000000000e+00 0.0000000000e+00 0.0000000000e+00
0.0000000000e+00 1.0000000000e-02 0.0000000000e+00
1.0000000000e-02 1.0000000000e-02 0.0000000000e+00
2.0000000000e-02 1.0000000000e-02 0.0000000000e+00
3.0000000000e-02 1.0000000000e-02 0.0000000000e+00
4.0000000000e-02 1.0000000000e-02 0.0000000000e+00
5.0000000000e-02 1.0000000000e-02 0.0000000000e+00
6.0000000000e-02 1.0000000000e-02 0.0000000000e+00
7.0000000000e-02 1.0000000000e-02 0.0000000000e+00
8.0000000000e-02 1.0000000000e-02 0.0000000000e+00
9.0000000000e-02 1.0000000000e-02 0.0000000000e+00
1.0000000000e-01 1.0000000000e-02 0.0000000000e+00
1.1000000000e-01 1.0000000000e-02 0.0000000000e+00
1.2000000000e-01 1.0000000000e-02 0.0000000000e+00
1.3000000000e-01 1.0000000000e-02 0.0000000000e+00
1.4000000000e-01 1.0000000000e-02 0.0000000000e+00
1.5000000000e-01 1.0000000000e-02 0.0000000000e+00
1.6000000000e-01 1.0000000000e-02 0.0000000000e+00
1.7000000000e-01 1.0000000000e-02 0.0000000000e+00
1.8000000000e-01 1.0000000000e-02 0.0000000000e+00
1.9000000000e-01 1.0000000000e-02 0.0000000000e+00
2.0000000000e-01 1.0000000000e-02 0.0000000000e+00
2.1000000000e-01 1.0000000000e-02 0.0000000000e+00
2.2000000000e-01 1.0000000000e-02 0.0000000000e+00
2.3000000000e-01 1.0000000000e-02 0.0000000000e+00
2.4000000000e-01 1.0000000000e-02 0.0000000000e+00
2.5000000000e-01 1.0000000000e-02 0.0000000000e+00
2.6000000000e-01 1.0000000000e-02 0.0000000000e+00
2.7000000000e-01 1.0000000000e-02 0.0000000000e+00
2.8000000000e-01 1.0000000000e-02 0.0000000000e+00
2.9000000000e-01 1.0000000000e-02 0.0000000000e+00
3.0000000000e-01 1.0000000000e-02 0.0000000000e+00
3.1000000000e-01 1.0000000000e-02 0.0000000000e+00
3.2000000000e-01 1.0000000000e-02 0.0000000000e+00
3.3000000000e-01 1.0000000000e-02 0.0000000000e+00
3.4000000000e-01 1.0000000000e-02 0.0000000000e+00
3.5000000000e-01 1.0000000000e-02 0.0000000000e+00
3.6000000000e-01 1.0000000000e-02 0.0000000000e+00
3.7000000000e-01 1.0000000000e-02 0.0000000000e+00
3.8000000000e-01 1.0000000000e-02 0.0000000000e+00
3.9000000000e-01 1.0000000000e-02 0.0000000000e+00
4.0000000000e-01 1.0000000000e-02 0.0000000000e+00
4.1000000000e-01 1.0000000000e-02 0.0000000000e+00
4.2000000000e-01 1.0000000000e-02 0.0000000000e+00
4.3000000000e-01 1.0000000000e-02 0.0000000000e+00
4.4000000000e-01 1.0000000000e-02 0.0000000000e+00
4.5000000000e-01 1.0000000000e-02 0.0000000000e+00
4.6000000000e-01 1.0000000000e-02 0.0000000000e+00
4.7000000000e-01 1.0000000000e-02 0.0000000000e+00
4.8000000000e-01 1.0000000000e-02 0.0000000000e+00
4.9000000000e-01 1.0000000000e-02 0.0000000000e+00
5.0000000000e-01 1.0000000000e-02 0.0000000000e+00
5.1000000000e-01 1.0000000000e-02 0.0000000000e+00
5.2000000000e-01 1.0000000000e-02 0.0000000000e+00
5.3000000000e-01 1.0000000000e-02 0.0000000000e+00
5.4000000000e-01 1.0000000000e-02 0.0000000000e+00
5.5000000000e-01 1.0000000000e-02 0.0000000000e+00
5.6000000000e-01 1.0000000000e-02 0.0000000000e+00
5.7000000000e-01 1.0000000000e-02 0.0000000000e+00
5.8000000000e-01 1.0000000000e-02 0.0000000000e+00
5.9000000000e-01 1.0000000000e-02 0.0000000000e+00
6.0000000000e-01 1.0000000000e-02 0.0000000000e+00
6.1000000000e-01 1.0000000000e-02 0.0000000000e+00
6.2000000000e-01 1.0000000000e-02 0.0000000000e+00
6.3000000000e-01 1.0000000000e-02 0.0000000000e+00
6.4000000000e-01 1.0000000000e-02 0.0000000000e+00
6.5000000000e-01 1.0000000000e-02 0.0000000000e+00
6.6000000000e-01 1.0000000000e-02 0.0000000000e+00
6.7000000000e-01 1.0000000000e-02 0.0000000000e+00
6.8000000000e-01 1.0000000000e-02 0.0000000000e+00
6.9000000000e-01 1.0000000000e-02 0.0000000000e+00
7.0000000000e-01 1.0000000000e-02 0.0000000000e+00
7.1000000000e-01 1.0000000000e-02 0.0000000000e+00
7.2000000000e-01 1.0000000000e-02 0.0000000000e+00
7.3000000000e-01 1.0000000000e-02 0.0000000000e+00
7.4000000000e-01 1.0000000000e-02 0.0000000000e+00
7.5000000000e-01 1.0000000000e-02 0.0000000000e+00
7.6000000000e-01 1.0000000000e-02 0.0000000000e+00
7.7000000000e-01 1.0000000000e-02 0.0000000000e+00
7.8000000000e-01 1.0000000000e-02 0.0000000000e+00
7.9000000000e-01 1.0000000000e-02 0.0000000000e+00
8.0000000000e-01 1.0000000000e-02 0.0000000000e+00
8.1000000000e-01 1.0000000000e-02 0.0000000000e+00
8.2000000000e-01 1.0000000000e-02 0.0000000000e+00
8.3000000000e-01 1.0000000000e-02 0.0000000000e+00
8.4000000000e-01 1.0000000000e-02 0.0000000000e+00
8.5000000000e-01 1.0000000000e-02 0.0000000000e+00
8.6000000000e-01 1.0000000000e-02 0.0000000000e+00
8.7000000000e-01 1.0000000000e-02 0.0000000000e+00
8.8000000000e-01 1.0000000000e-02 0.0000000000e+00
8.9000000000e-01 1.0000000000e-02 0.0000000000e+00
9.0000000000e-01 1.0000000000e-02 0.0000000000e+00
9.1000000000e-01 1.0000000000e-02 0.0000000000e+00
9.2000000000e-01 1.0000000000e-02 0.0000000000e+00
[...]
CELL_DATA 10000

SCALARS massDensity float
LOOKUP_TABLE default
1.1982946877e+00
1.1983433756e+00
1.1984153040e+00
1.1985235012e+00
1.1986657436e+00
1.1988392582e+00
1.1990408041e+00
1.1992667659e+00
1.1995132408e+00
1.1997761469e+00
1.2000513197e+00
1.2003346222e+00
1.2006220349e+00
1.2009097519e+00
1.2011942501e+00
1.2014723598e+00
1.2017413046e+00
1.2019987414e+00
1.2022427693e+00
1.2024719386e+00
1.2026852324e+00
1.2028820505e+00
1.2030621698e+00
1.2032257112e+00
1.2033730882e+00
1.2035049647e+00
1.2036222003e+00
1.2037258069e+00
1.2038168976e+00
1.2038966472e+00
1.2039662492e+00
1.2040268849e+00
1.2040796895e+00
1.2041257317e+00
1.2041659904e+00
1.2042013447e+00
1.2042325605e+00
1.2042602905e+00
1.2042850702e+00
1.2043073261e+00
1.2043273795e+00
1.2043454607e+00
1.2043617188e+00
1.2043762392e+00
1.2043890565e+00
1.2044001721e+00
1.2044095670e+00
1.2044172177e+00
1.2044231053e+00
1.2044272274e+00
1.2044296026e+00
1.2044302768e+00
1.2044293232e+00
1.2044268429e+00
1.2044229612e+00
1.2044178248e+00
1.2044115953e+00
1.2044044444e+00
1.2043965477e+00
1.2043880793e+00
1.2043792066e+00
1.2043700868e+00
1.2043608626e+00
1.2043516613e+00
1.2043425922e+00
1.2043337474e+00
1.2043252012e+00
1.2043170116e+00
1.2043092212e+00
1.2043018592e+00
1.2042949430e+00
1.2042884798e+00
1.2042824689e+00
1.2042769028e+00
1.2042717688e+00
1.2042670504e+00
1.2042627284e+00
1.2042587815e+00
1.2042551877e+00
1.2042519238e+00
1.2042489672e+00
1.2042462953e+00
1.2042438865e+00
1.2042417205e+00
1.2042397789e+00
1.2042380456e+00
1.2042365084e+00
1.2042351593e+00
1.2042339965e+00
1.2042330253e+00
1.2042322611e+00
1.2042317301e+00
1.2042314738e+00
1.2042315507e+00
1.2042320424e+00
1.2042330578e+00
1.2042347404e+00
1.2042372694e+00
1.2042408442e+00
1.2042270187e+00
1.1983433756e+00
1.1983946084e+00
1.1984675026e+00
1.1985759306e+00
1.1987178660e+00
1.1988906679e+00
1.1990911959e+00
1.1993158996e+00
1.1995609351e+00
1.1998222593e+00
1.2000957503e+00
1.2003772987e+00
1.2006629195e+00
1.2009488278e+00
1.2012315289e+00
1.2015078681e+00
1.2017750912e+00
1.2020308640e+00
1.2022733010e+00
1.2025009554e+00
1.2027128182e+00
1.2029082855e+00
1.2030871348e+00
1.2032494767e+00
1.2033957178e+00
1.2035265050e+00
1.2036426842e+00
1.2037452440e+00
1.2038352776e+00
1.2039139323e+00
1.2039823774e+00
1.2040417646e+00
1.2040932050e+00
1.2041377398e+00
1.2041763284e+00
1.2042098305e+00
1.2042390030e+00
1.2042644931e+00
1.2042868435e+00
1.2043064933e+00
1.2043237906e+00
1.2043389985e+00
1.2043523118e+00
1.2043638660e+00
1.2043737552e+00
1.2043820415e+00
1.2043887706e+00
1.2043939796e+00
1.2043977087e+00
1.2044000053e+00
1.2044009310e+00
1.2044005621e+00
1.2043989920e+00
1.2043963279e+00
1.2043926908e+00
1.2043882096e+00
1.2043830197e+00
1.2043772567e+00
1.2043710545e+00
1.2043645402e+00
1.2043578327e+00
1.2043510393e+00
1.2043442550e+00
1.2043375612e+00
1.2043310264e+00
1.2043247054e+00
1.2043186411e+00
1.2043128651e+00
1.2043073990e+00
1.2043022557e+00
1.2042974410e+00
1.2042929548e+00
1.2042887920e+00
1.2042849439e+00
1.2042813989e+00
1.2042781438e+00
1.2042751634e+00
1.2042724423e+00
1.2042699643e+00
1.2042677134e+00
1.2042656738e+00
1.2042638303e+00
1.2042621683e+00
1.2042606746e+00
1.2042593373e+00
1.2042581465e+00
1.2042570943e+00
1.2042561766e+00
1.2042553921e+00
1.2042547448e+00
1.2042542435e+00
1.2042539037e+00
1.2042537475e+00
1.2042538053e+00
1.2042541146e+00
1.2042547199e+00
1.2042556664e+00
1.2042569880e+00
1.2042586717e+00
1.2042412673e+00
1.1984153040e+00
1.1984675026e+00
1.1985400381e+00
1.1986474694e+00
1.1987878516e+00
1.1989586294e+00
1.1991567270e+00
1.1993786663e+00
1.1996206576e+00
1.1998787239e+00
1.2001487924e+00
1.2004268161e+00
1.2007088543e+00
1.2009911787e+00
1.2012703321e+00
1.2015432078e+00
1.2018070805e+00
1.2020596539e+00
1.2022990615e+00
1.2025238831e+00
1.2027331195e+00
1.2029261828e+00
1.2031028516e+00
1.2032632434e+00
1.2034077587e+00
1.2035370439e+00
1.2036519327e+00
1.2037534074e+00
1.2038425443e+00
1.2039204791e+00
1.2039883607e+00
1.2040473248e+00
1.2040984587e+00
1.2041427846e+00
1.2041812362e+00
1.2042146521e+00
1.2042437635e+00
1.2042691970e+00
1.2042914721e+00
1.2043110111e+00
1.2043281441e+00
1.2043431242e+00
1.2043561364e+00
1.2043673151e+00
1.2043767542e+00
1.2043845238e+00
1.2043906783e+00
1.2043952702e+00
1.2043983548e+00
1.2043999988e+00
1.2044002813e+00
1.2043992977e+00
1.2043971569e+00
1.2043939812e+00
1.2043899019e+00
1.2043850567e+00
1.2043795844e+00
1.2043736225e+00
1.2043673020e+00
1.2043607459e+00
1.2043540653e+00
1.2043473594e+00
1.2043407136e+00
1.2043341996e+00
1.2043278757e+00
1.2043217877e+00
1.2043159700e+00
1.2043104466e+00
1.2043052330e+00
1.2043003368e+00
1.2042957600e+00
1.2042914992e+00
1.2042875475e+00
1.2042838949e+00
1.2042805294e+00
1.2042774373e+00
1.2042746042e+00
1.2042720150e+00
1.2042696549e+00
1.2042675085e+00
1.2042655616e+00
1.2042637999e+00
1.2042622107e+00
1.2042607816e+00
1.2042595025e+00
1.2042583642e+00
1.2042573603e+00
1.2042564863e+00
1.2042557414e+00
1.2042551275e+00
1.2042546511e+00
1.2042543218e+00
1.2042541543e+00
1.2042541653e+00
1.2042543738e+00
1.2042547950e+00
1.2042554337e+00
1.2042562656e+00
1.2042572074e+00
1.2042379945e+00
1.1985235012e+00
1.1985759306e+00
1.1986474694e+00
1.1987531589e+00
1.1988911063e+00
1.1990588148e+00
1.1992532906e+00
1.1994711255e+00
1.1997086191e+00
1.1999618665e+00
1.2002268852e+00
1.2004996978e+00
1.2007764494e+00
1.2010534737e+00
1.2013273893e+00
1.2015951404e+00
1.2018540632e+00
1.2021018981e+00
1.2023368238e+00
1.2025574419e+00
1.2027627822e+00
1.2029522644e+00
1.2031256814e+00
1.2032831462e+00
1.2034250613e+00
1.2035520592e+00
1.2036649660e+00
1.2037647434e+00
1.2038524526e+00
1.2039292038e+00
1.2039961258e+00
1.2040543253e+00
1.2041048659e+00
1.2041487388e+00
1.2041868521e+00
1.2042200132e+00
1.2042489278e+00
1.2042741933e+00
1.2042963069e+00
1.2043156664e+00
1.2043325857e+00
1.2043473010e+00
1.2043599893e+00
1.2043707782e+00
1.2043797630e+00
1.2043870167e+00
1.2043926041e+00
1.2043965887e+00
1.2043990424e+00
1.2044000476e+00
1.2043997021e+00
1.2043981173e+00
1.2043954190e+00
1.2043917423e+00
1.2043872300e+00
1.2043820268e+00
1.2043762765e+00
1.2043701167e+00
1.2043636772e+00
1.2043570757e+00
1.2043504172e+00
1.2043437921e+00
1.2043372769e+00
1.2043309335e+00
1.2043248110e+00
1.2043189459e+00
1.2043133646e+00
1.2043080837e+00
1.2043031126e+00
1.2042984540e+00
1.2042941058e+00
1.2042900620e+00
1.2042863134e+00
1.2042828491e+00
1.2042796562e+00
1.2042767212e+00
1.2042740299e+00
1.2042715680e+00
1.2042693213e+00
1.2042672757e+00
1.2042654178e+00
1.2042637349e+00
1.2042622147e+00
1.2042608468e+00
1.2042596213e+00
1.2042585304e+00
1.2042575675e+00
1.2042567287e+00
1.2042560117e+00
1.2042554174e+00
1.2042549484e+00
1.2042546104e+00
1.2042544098e+00
1.2042543540e+00
1.2042544473e+00
1.2042546879e+00
1.2042550587e+00
1.2042555162e+00
1.2042559694e+00
1.2042355775e+00
1.1986657436e+00
1.1987178660e+00
1.1987878516e+00
1.1988911063e+00
1.1990257692e+00
1.1991894165e+00
1.1993791266e+00
1.1995915929e+00
1.1998232029e+00
1.2000701645e+00
1.2003285870e+00
1.2005946061e+00
1.2008644539e+00
1.2011345687e+00
1.2014016441e+00
1.2016627129e+00
1.2019151696e+00
1.2021568228e+00
1.2023858901e+00
1.2026010195e+00
1.2028012603e+00
1.2029860579e+00
1.2031552072e+00
1.2033088293e+00
1.2034473144e+00
1.2035712892e+00
1.2036815572e+00
1.2037790636e+00
1.2038648403e+00
1.2039399738e+00
1.2040055590e+00
1.2040626747e+00
1.2041123483e+00
1.2041555407e+00
1.2041931234e+00
1.2042258734e+00
1.2042544615e+00
1.2042794573e+00
1.2043013271e+00
1.2043204463e+00
1.2043371049e+00
1.2043515246e+00
1.2043638680e+00
1.2043742575e+00
1.2043827846e+00
1.2043895269e+00
1.2043945549e+00
1.2043979446e+00
1.2043997805e+00
1.2044001619e+00
1.2043992022e+00
1.2043970302e+00
1.2043937859e+00
1.2043896184e+00
1.2043846802e+00
1.2043791242e+00
1.2043730978e+00
1.2043667404e+00
1.2043601792e+00
1.2043535281e+00
1.2043468852e+00
1.2043403335e+00
1.2043339401e+00
1.2043277581e+00
1.2043218269e+00
1.2043161747e+00
1.2043108195e+00
1.2043057712e+00
1.2043010329e+00
1.2042966028e+00
1.2042924746e+00
1.2042886396e+00
1.2042850869e+00
1.2042818038e+00
1.2042787774e+00
1.2042759939e+00
1.2042734395e+00
1.2042711003e+00
1.2042689630e+00
1.2042670145e+00
1.2042652423e+00
1.2042636345e+00
1.2042621804e+00
1.2042608698e+00
1.2042596939e+00
1.2042586451e+00
1.2042577175e+00
1.2042569062e+00
1.2042562087e+00
1.2042556234e+00
1.2042551508e+00
1.2042547917e+00
1.2042545477e+00
1.2042544183e+00
1.2042543997e+00
1.2042544799e+00
1.2042546342e+00
1.2042548167e+00
1.2042549516e+00
1.2042337677e+00
1.1988392582e+00
1.1988906679e+00
1.1989586294e+00
1.1990588148e+00
1.1991894165e+00
1.1993480736e+00
1.1995319663e+00
1.1997378826e+00
1.1999623370e+00
1.2002016459e+00
1.2004520548e+00
1.2007098087e+00
1.2009712716e+00
1.2012329817e+00
1.2014917494e+00
1.2017446898e+00
1.2019892920e+00
1.2022234242e+00
1.2024453726e+00
1.2026538208e+00
1.2028478600e+00
1.2030269488e+00
1.2031909004e+00
1.2033398294e+00
1.2034741251e+00
1.2035943929e+00
1.2037014209e+00
1.2037961227e+00
1.2038795048e+00
1.2039526159e+00
1.2040165196e+00
1.2040722535e+00
1.2041208104e+00
1.2041631094e+00
1.2041999870e+00
1.2042321794e+00
1.2042603246e+00
1.2042849553e+00
1.2043065091e+00
1.2043253312e+00
1.2043416900e+00
1.2043557858e+00
1.2043677692e+00
1.2043777514e+00
1.2043858220e+00
1.2043920581e+00
1.2043965376e+00
1.2043993447e+00
1.2044005777e+00
1.2044003497e+00
1.2043987906e+00
1.2043960440e+00
1.2043922652e+00
1.2043876153e+00
1.2043822578e+00
1.2043763522e+00
1.2043700509e+00
1.2043634941e+00
1.2043568077e+00
1.2043501012e+00
1.2043434670e+00
1.2043369800e+00
1.2043306992e+00
1.2043246684e+00
1.2043189185e+00
1.2043134688e+00
1.2043083297e+00
1.2043035041e+00
1.2042989895e+00
1.2042947789e+00
1.2042908626e+00
1.2042872288e+00
1.2042838648e+00
1.2042807568e+00
1.2042778911e+00
1.2042752539e+00
1.2042728316e+00
1.2042706110e+00
1.2042685793e+00
1.2042667244e+00
1.2042650345e+00
1.2042634990e+00
1.2042621074e+00
1.2042608509e+00
1.2042597207e+00
1.2042587100e+00
1.2042578123e+00
1.2042570232e+00
1.2042563383e+00
1.2042557554e+00
1.2042552719e+00
1.2042548863e+00
1.2042545954e+00
1.2042543947e+00
1.2042542750e+00
1.2042542207e+00
1.2042542056e+00
1.2042541897e+00
1.2042541147e+00
1.2042323736e+00
1.1990408041e+00
1.1990911959e+00
1.1991567270e+00
1.1992532906e+00
1.1993791266e+00
1.1995319663e+00
1.1997090823e+00
1.1999073940e+00
1.2001235341e+00
1.2003539710e+00
1.2005950776e+00
1.2008432540e+00
1.2010949872e+00
1.2013469595e+00
1.2015960884e+00
1.2018396111e+00
1.2020751001e+00
1.2023005172e+00
1.2025142043e+00
1.2027149078e+00
1.2029017470e+00
1.2030742137e+00
1.2032321245e+00
1.2033756022e+00
1.2035050197e+00
1.2036209708e+00
1.2037242127e+00
1.2038156342e+00
1.2038962015e+00
1.2039669298e+00
1.2040288375e+00
1.2040829243e+00
1.2041301363e+00
1.2041713532e+00
1.2042073655e+00
1.2042388717e+00
1.2042664672e+00
1.2042906503e+00
1.2043118222e+00
1.2043303001e+00
1.2043463241e+00
1.2043600752e+00
1.2043716859e+00
1.2043812584e+00
1.2043888751e+00
1.2043946143e+00
1.2043985567e+00
1.2044007962e+00
1.2044014412e+00
1.2044006196e+00
1.2043984750e+00
1.2043951669e+00
1.2043908636e+00
1.2043857395e+00
1.2043799674e+00
1.2043737149e+00
1.2043671381e+00
1.2043603792e+00
1.2043535625e+00
1.2043467940e+00
1.2043401600e+00
1.2043337286e+00
1.2043275503e+00
1.2043216605e+00
1.2043160811e+00
1.2043108236e+00
1.2043058905e+00
1.2043012781e+00
1.2042969779e+00
1.2042929783e+00
1.2042892660e+00
1.2042858263e+00
1.2042826445e+00
1.2042797056e+00
1.2042769953e+00
1.2042744995e+00
1.2042722051e+00
1.2042700991e+00
1.2042681696e+00
1.2042664049e+00
1.2042647945e+00
1.2042633280e+00
1.2042619963e+00
1.2042607905e+00
1.2042597030e+00
1.2042587266e+00
1.2042578554e+00
1.2042570838e+00
1.2042564077e+00
1.2042558226e+00
1.2042553251e+00
1.2042549108e+00
1.2042545746e+00
1.2042543088e+00
1.2042541024e+00
1.2042539385e+00
1.2042537935e+00
1.2042536341e+00
1.2042534178e+00
1.2042312624e+00
1.1992667659e+00
1.1993158996e+00
1.1993786663e+00
1.1994711255e+00
1.1995915929e+00
1.1997378826e+00
1.1999073940e+00
1.2000971663e+00
1.2003039912e+00
1.2005244765e+00
1.2007551674e+00
1.2009926063e+00
1.2012334481e+00
1.2014745055e+00
1.2017128456e+00
1.2019458132e+00
1.2021711014e+00
1.2023867506e+00
1.2025911894e+00
1.2027832109e+00
1.2029619871e+00
1.2031270268e+00
1.2032781682e+00
1.2034155261e+00
1.2035394698e+00
1.2036505660e+00
1.2037495500e+00
1.2038372703e+00
1.2039146596e+00
1.2039826853e+00
1.2040423256e+00
1.2040945293e+00
1.2041401996e+00
1.2041801658e+00
1.2042151759e+00
1.2042458807e+00
1.2042728362e+00
1.2042964984e+00
1.2043172345e+00
1.2043353269e+00
1.2043509899e+00
1.2043643791e+00
1.2043756112e+00
1.2043847738e+00
1.2043919441e+00
1.2043971969e+00
1.2044006171e+00
1.2044023043e+00
1.2044023784e+00
1.2044009786e+00
1.2043982636e+00
1.2043944059e+00
1.2043895884e+00
1.2043839968e+00
1.2043778146e+00
1.2043712160e+00
1.2043643625e+00
1.2043573973e+00
1.2043504443e+00
1.2043436056e+00
1.2043369628e+00
1.2043305767e+00
1.2043244903e+00
1.2043187304e+00
1.2043133109e+00
1.2043082349e+00
1.2043034976e+00
1.2042990887e+00
1.2042949941e+00
1.2042911974e+00
1.2042876814e+00
1.2042844290e+00
1.2042814231e+00
1.2042786478e+00
1.2042760878e+00
1.2042737292e+00
1.2042715585e+00
1.2042695636e+00
1.2042677329e+00
1.2042660557e+00
1.2042645218e+00
1.2042631220e+00
1.2042618473e+00
1.2042606899e+00
1.2042596421e+00
1.2042586975e+00
1.2042578495e+00
1.2042570931e+00
1.2042564227e+00
1.2042558337e+00
1.2042553210e+00
1.2042548792e+00
1.2042545014e+00
1.2042541790e+00
1.2042539000e+00
1.2042536488e+00
1.2042534045e+00
1.2042531409e+00
1.2042528266e+00
1.2042303479e+00
1.1995132408e+00
1.1995609351e+00
1.1996206576e+00
1.1997086191e+00
1.1998232029e+00
1.1999623370e+00
1.2001235341e+00
1.2003039912e+00
1.2005006435e+00
1.2007102808e+00
1.2009296037e+00
1.2011553415e+00
1.2013842995e+00
1.2016134644e+00
1.2018400343e+00
1.2020615019e+00
1.2022756623e+00
1.2024806687e+00
1.2026750181e+00
1.2028575787e+00
1.2030275568e+00
1.2031845004e+00
1.2033282516e+00
1.2034589338e+00
1.2035768958e+00
1.2036826893e+00
1.2037770121e+00
1.2038606812e+00
1.2039345811e+00
1.2039996383e+00
1.2040567774e+00
1.2041069018e+00
1.2041508604e+00
1.2041894363e+00
1.2042233253e+00
1.2042531345e+00
1.2042793718e+00
1.2043024546e+00
1.2043227090e+00
1.2043403855e+00
1.2043556662e+00
1.2043686844e+00
1.2043795349e+00
1.2043882935e+00
1.2043950267e+00
1.2043998077e+00
1.2044027216e+00
1.2044038747e+00
1.2044033949e+00
1.2044014341e+00
1.2043981630e+00
1.2043937687e+00
1.2043884462e+00
1.2043823939e+00
1.2043758045e+00
1.2043688603e+00
1.2043617270e+00
1.2043545506e+00
1.2043474537e+00
1.2043405362e+00
1.2043338742e+00
1.2043275225e+00
1.2043215165e+00
1.2043158752e+00
1.2043106042e+00
1.2043056989e+00
1.2043011472e+00
1.2042969323e+00
1.2042930343e+00
1.2042894324e+00
1.2042861057e+00
1.2042830339e+00
1.2042801982e+00
1.2042775811e+00
1.2042751670e+00
1.2042729412e+00
1.2042708908e+00
1.2042690036e+00
1.2042672689e+00
1.2042656763e+00
1.2042642166e+00
1.2042628809e+00
1.2042616613e+00
1.2042605499e+00
1.2042595400e+00
1.2042586247e+00
1.2042577984e+00
1.2042570550e+00
1.2042563893e+00
1.2042557956e+00
1.2042552686e+00
1.2042548015e+00
1.2042543875e+00
1.2042540169e+00
1.2042536788e+00
1.2042533585e+00
1.2042530388e+00
1.2042526987e+00
1.2042523154e+00
1.2042295735e+00
1.1997761469e+00
1.1998222593e+00
1.1998787239e+00
1.1999618665e+00
1.2000701645e+00
1.2002016459e+00
1.2003539710e+00
1.2005244765e+00
1.2007102808e+00
1.2009083355e+00
1.2011155399e+00
1.2013287885e+00
1.2015450803e+00
1.2017615541e+00
1.2019755802e+00
1.2021847769e+00
1.2023870782e+00
1.2025807289e+00
1.2027643254e+00
1.2029367906e+00
1.2030973906e+00
1.2032456929e+00
1.2033815639e+00
1.2035051169e+00
1.2036166962e+00
1.2037168212e+00
1.2038061639e+00
1.2038854949e+00
1.2039556590e+00
1.2040175284e+00
1.2040719812e+00
1.2041198638e+00
1.2041619763e+00
1.2041990456e+00
1.2042317204e+00
1.2042605551e+00
1.2042860146e+00
1.2043084696e+00
1.2043282094e+00
1.2043454459e+00
1.2043603329e+00
1.2043729748e+00
1.2043834479e+00
1.2043918106e+00
1.2043981212e+00
1.2044024466e+00
1.2044048734e+00
1.2044055112e+00
1.2044044971e+00
1.2044019924e+00
1.2043981810e+00
1.2043932620e+00
1.2043874443e+00
1.2043809368e+00
1.2043739429e+00
1.2043666521e+00
1.2043592357e+00
1.2043518414e+00
1.2043445926e+00
1.2043375860e+00
1.2043308938e+00
1.2043245646e+00
1.2043186270e+00
1.2043130922e+00
1.2043079580e+00
1.2043032123e+00
1.2042988358e+00
1.2042948053e+00
1.2042910953e+00
1.2042876803e+00
1.2042845356e+00
1.2042816382e+00
1.2042789671e+00
1.2042765035e+00
1.2042742308e+00
1.2042721342e+00
1.2042702005e+00
1.2042684182e+00
1.2042667767e+00
1.2042652665e+00
1.2042638787e+00
1.2042626053e+00
1.2042614386e+00
1.2042603718e+00
1.2042593978e+00
1.2042585108e+00
1.2042577046e+00
1.2042569736e+00
1.2042563119e+00
1.2042557143e+00
1.2042551743e+00
1.2042546858e+00
1.2042542407e+00
1.2042538306e+00
1.2042534446e+00
1.2042530704e+00
1.2042526932e+00
1.2042522970e+00
1.2042518639e+00
1.2042289018e+00
1.2000513197e+00
1.2000957503e+00
1.2001487924e+00
1.2002268852e+00
1.2003285870e+00
1.2004520548e+00
1.2005950776e+00
1.2007551674e+00
1.2009296037e+00
1.2011155399e+00
1.2013100491e+00
1.2015102330e+00
1.2017132590e+00
1.2019164584e+00
1.2021173486e+00
1.2023137112e+00
1.2025035948e+00
1.2026853686e+00
1.2028577057e+00
1.2030196116e+00
1.2031703906e+00
1.2033096529e+00
1.2034372691e+00
1.2035533612e+00
1.2036582504e+00
1.2037524387e+00
1.2038365561e+00
1.2039113378e+00
1.2039775754e+00
1.2040360955e+00
1.2040877177e+00
1.2041332385e+00
1.2041733990e+00
1.2042088765e+00
1.2042402631e+00
1.2042680668e+00
1.2042927014e+00
1.2043144961e+00
1.2043336964e+00
1.2043504804e+00
1.2043649669e+00
1.2043772357e+00
1.2043873386e+00
1.2043953195e+00
1.2044012239e+00
1.2044051141e+00
1.2044070743e+00
1.2044072186e+00
1.2044056899e+00
1.2044026601e+00
1.2043983238e+00
1.2043928934e+00
1.2043865891e+00
1.2043796323e+00
1.2043722356e+00
1.2043645969e+00
1.2043568924e+00
1.2043492733e+00
1.2043418628e+00
1.2043347563e+00
1.2043280217e+00
1.2043217025e+00
1.2043158203e+00
1.2043103794e+00
1.2043053699e+00
1.2043007723e+00
1.2042965604e+00
1.2042927046e+00
1.2042891738e+00
1.2042859379e+00
1.2042829684e+00
1.2042802393e+00
1.2042777275e+00
1.2042754127e+00
1.2042732775e+00
1.2042713064e+00
1.2042694866e+00
1.2042678064e+00
1.2042662559e+00
1.2042648258e+00
1.2042635082e+00
1.2042622953e+00
1.2042611802e+00
1.2042601563e+00
1.2042592175e+00
1.2042583575e+00
1.2042575709e+00
1.2042568518e+00
1.2042561949e+00
1.2042555941e+00
1.2042550437e+00
1.2042545368e+00
1.2042540665e+00
1.2042536240e+00
1.2042532002e+00
1.2042527839e+00
1.2042523634e+00
1.2042519254e+00
1.2042514571e+00
1.2042283051e+00
1.2003346222e+00
1.2003772987e+00
1.2004268161e+00
1.2004996978e+00
1.2005946061e+00
1.2007098087e+00
1.2008432540e+00
1.2009926063e+00
1.2011553415e+00
1.2013287885e+00
1.2015102330e+00
1.2016969556e+00
1.2018863311e+00
1.2020758554e+00
1.2022632300e+00
1.2024463724e+00
1.2026234799e+00
1.2027930203e+00
1.2029537730e+00
1.2031048023e+00
1.2032454759e+00
1.2033754252e+00
1.2034945457e+00
1.2036029489e+00
1.2037009497e+00
1.2037890160e+00
1.2038677491e+00
1.2039378344e+00
1.2040000211e+00
1.2040550777e+00
1.2041037745e+00
1.2041468473e+00
1.2041849863e+00
1.2042188097e+00
1.2042488605e+00
1.2042755920e+00
1.2042993730e+00
1.2043204848e+00
1.2043391341e+00
1.2043554590e+00
1.2043695479e+00
1.2043814503e+00
1.2043911972e+00
1.2043988128e+00
1.2044043323e+00
1.2044078090e+00
1.2044093266e+00
1.2044089999e+00
1.2044069788e+00
1.2044034430e+00
1.2043985988e+00
1.2043926695e+00
1.2043858882e+00
1.2043784870e+00
1.2043706890e+00
1.2043626999e+00
1.2043547020e+00
1.2043468497e+00
1.2043392674e+00
1.2043320489e+00
1.2043252590e+00
1.2043189361e+00
1.2043130958e+00
1.2043077354e+00
1.2043028380e+00
1.2042983767e+00
1.2042943185e+00
1.2042906274e+00
1.2042872671e+00
1.2042842026e+00
1.2042814015e+00
1.2042788348e+00