# vtk DataFile Version 2.0
Blank
ASCII
DATASET STRUCTURED_GRID
DIMENSIONS 101 101 2
POINTS 20402 float
0.0000000000e+00 0.0000000000e+00 0.0000000000e+00
1.0000000000e-02 0.0000000000e+00 0.0000000000e+00
2.0000000000e-02 0.0000000000e+00 0.0000000000e+00
3.0000000000e-02 0.0000000000e+00 0.0000000000e+00
4.0000000000e-02 0.0000000000e+00 0.0000000000e+00
5.0000000000e-02 0.0000000000e+00 0.0000000000e+00
6.0000000000e-02 0.0000000000e+00 0.0000000000e+00
7.0000000000e-02 0.0000000000e+00 0.0000000000e+00
8.0000000000e-02 0.0000000000e+00 0.0000000000e+00
9.0000000000e-02 0.0000000000e+00 0.0000000000e+00
1.0000000000e-01 0.0000000000e+00 0.0000000000e+00
1.1000000000e-01 0.0000000000e+00 0.0000000000e+00
1.2000000000e-01 0.0000000000e+00 0.0000000000e+00
1.3000000000e-01 0.0000000000e+00 0.0000000000e+00
1.4000000000e-01 0.0000000000e+00 0.0000000000e+00
1.5000000000e-01 0.0000000000e+00 0.0000000000e+00
1.6000000000e-01 0.0000000000e+00 0.0000000000e+00
1.7000000000e-01 0.0000000000e+00 0.0000000000e+00
1.8000000000e-01 0.0000000000e+00 0.0000000000e+00
1.9000000000e-01 0.0000000000e+00 0.0000000000e+00
2.0000000000e-01 0.0000000000e+00 0.0000000000e+00
2.1000000000e-01 0.0000000000e+00 0.0000000000e+00
2.2000000000e-01 0.0000000000e+00 0.0000000000e+00
2.3000000000e-01 0.0000000000e+00 0.0000000000e+00
2.4000000000e-01 0.0000000000e+00 0.0000000000e+00
2.5000000000e-01 0.0000000000e+00 0.0000000000e+00
2.6000000000e-01 0.0000000000e+00 0.0000000000e+00
2.7000000000e-01 0.0000000000e+00 0.0000000000e+00
2.8000000000e-01 0.0000000000e+00 0.0000000000e+00
2.9000000000e-01 0.0000000000e+00 0.0000000000e+00
3.0000000000e-01 0.0000000000e+00 0.0000000000e+00
3.1000000000e-01 0.0000000000e+00 0.0000000000e+00
3.2000000000e-01 0.0000000000e+00 0.0000000000e+00
3.3000000000e-01 0.0000000000e+00 0.0000000000e+00
3.4000000000e-01 0.0000000000e+00 0.0000000000e+00
3.5000000000e-01 0.0000000000e+00 0.0000000000e+00
3.6000000000e-01 0.0000000000e+00 0.0000000000e+00
3.7000000000e-01 0.0000000000e+00 0.0000000000e+00
3.8000000000e-01 0.0000000000e+00 0.0000000000e+00
3.9000000000e-01 0.0000000000e+00 0.0000000000e+00
4.0000000000e-01 0.0000000000e+00 0.0000000000e+00
4.1000000000e-01 0.0000000000e+00 0.0000000000e+00
4.2000000000e-01 0.0000000000e+00 0.0000000000e+00
4.3000000000e-01 0.0000000000e+00 0.0000000000e+00
4.4000000000e-01 0.0000000000e+00 0.0000000000e+00
4.5000000000e-01 0.0000000000e+00 0.0000000000e+00
4.6000000000e-01 0.0000000000e+00 0.0000000000e+00
4.7000000000e-01 0.0000000000e+00 0.0000000000e+00
4.8000000000e-01 0.0000000000e+00 0.0000000000e+00
4.9000000000e-01 0.0000000000e+00 0.0000000000e+00
5.0000000000e-01 0.0000000000e+00 0.0000000000e+00
5.1000000000e-01 0.0000000000e+00 0.0000000000e+00
5.2000000000e-01 0.0000000000e+00 0.0000000000e+00
5.3000000000e-01 0.0000000000e+00 0.0000000000e+00
5.4000000000e-01 0.0000000000e+00 0.0000000000e+00
5.5000000000e-01 0.0000000000e+00 0.0000000000e+00
5.6000000000e-01 0.0000000000e+00 0.0000000000e+00
5.7000000000e-01 0.0000000000e+00 0.0000000000e+00
5.8000000000e-01 0.0000000000e+00 0.0000000000e+00
5.9000000000e-01 0.0000000000e+00 0.0000000000e+00
6.0000000000e-01 0.0000000000e+00 0.0000000000e+00
6.1000000000e-01 0.0000000000e+00 0.0000000000e+00
6.2000000000e-01 0.0000000000e+00 0.0000000000e+00
6.3000000000e-01 0.0000000000e+00 0.0000000000e+00
6.4000000000e-01 0.0000000000e+00 0.0000000000e+00
6.5000000000e-01 0.0000000000e+00 0.0000000000e+00
6.6000000000e-01 0.0000000000e+00 0.0000000000e+00
6.7000000000e-01 0.0000000000e+00 0.0000000000e+00
6.8000000000e-01 0.0000000000e+00 0.0000000000e+00
6.9000000000e-01 0.0000000000e+00 0.0000000000e+00
7.0000000000e-01 0.0000000000e+00 0.0000000000e+00
7.1000000000e-01 0.0000000000e+00 0.0000000000e+00
7.2000000000e-01 0.0000000000e+00 0.0000000000e+00
7.3000000000e-01 0.0000000000e+00 0.0000000000e+00
7.4000000000e-01 0.0000000000e+00 0.0000000000e+00
7.5000000000e-01 0.0000000000e+00 0.0000000000e+00
7.6000000000e-01 0.0000000000e+00 0.0000000000e+00
7.7000000000e-01 0.0000000000e+00 0.0000000000e+00
7.8000000000e-01 0.0000000000e+00 0.0000000000e+00
7.9000000000e-01 0.0000000000e+00 0.0000000000e+00
8.0000000000e-01 0.0000000000e+00 0.0000000000e+00
8.1000000000e-01 0.0000000000e+00 0.0000000000e+00
8.2000000000e-01 0.0000000000e+00 0.0000000000e+00
8.3000000000e-01 0.0000000000e+00 0.0000000000e+00
8.4000000000e-01 0.0000000000e+00 0.0000000000e+00
8.5000000000e-01 0.0000000000e+00 0.0000000000e+00
8.6000000000e-01 0.0000000000e+00 0.0000000000e+00
8.7000000000e-01 0.0000000000e+00 0.0000000000e+00
8.8000000000e-01 0.0000000000e+00 0.0000000000e+00
8.9000000000e-01 0.0000000000e+00 0.0000000000e+00
9.0000000000e-01 0.0000000000e+00 0.0000000000e+00
9.1000000000e-01 0.0000000000e+00 0.0000000000e+00
9.2000000000e-01 0.0000000000e+00 0.0000000000e+00
9.3000000000e-01 0.0000000000e+00 0.0000000000e+00
9.4000000000e-01 0.0000000000e+00 0.0000000000e+00
9.5000000000e-01 0.0000000000e+00 0.0000000000e+00
9.6000000000e-01 0.0000000000e+00 0.0000000000e+00
9.7000000000e-01 0.0000000000e+00 0.0000000000e+00
9.8000000000e-01 0.0000000000e+00 0.0000000000e+00
9.9000000000e-01 0.0000000000e+00 0.0000000000e+00
1.0000000000e+00 0.0000000000e+00 0.0000000000e+00
0.0000000000e+00 1.0000000000e-02 0.0000000000e+00
1.0000000000e-02 1.0000000000e-02 0.0000000000e+00
2.0000000000e-02 1.0000000000e-02 0.0000000000e+00
3.0000000000e-02 1.0000000000e-02 0.0000000000e+00
4.0000000000e-02 1.0000000000e-02 0.0000000000e+00
5.0000000000e-02 1.0000000000e-02 0.0000000000e+00
6.0000000000e-02 1.0000000000e-02 0.0000000000e+00
7.0000000000e-02 1.0000000000e-02 0.0000000000e+00
8.0000000000e-02 1.0000000000e-02 0.0000000000e+00
9.0000000000e-02 1.0000000000e-02 0.0000000000e+00
1.0000000000e-01 1.0000000000e-02 0.0000000000e+00
1.1000000000e-01 1.0000000000e-02 0.0000000000e+00
1.2000000000e-01 1.0000000000e-02 0.0000000000e+00
1.3000000000e-01 1.0000000000e-02 0.0000000000e+00
1.4000000000e-01 1.0000000000e-02 0.0000000000e+00
1.5000000000e-01 1.0000000000e-02 0.0000000000e+00
1.6000000000e-01 1.0000000000e-02 0.0000000000e+00
1.7000000000e-01 1.0000000000e-02 0.0000000000e+00
1.8000000000e-01 1.0000000000e-02 0.0000000000e+00
1.9000000000e-01 1.0000000000e-02 0.0000000000e+00
2.0000000000e-01 1.0000000000e-02 0.0000000000e+00
2.1000000000e-01 1.0000000000e-02 0.0000000000e+00
2.2000000000e-01 1.0000000000e-02 0.0000000000e+00
2.3000000000e-01 1.0000000000e-02 0.0000000000e+00
2.4000000000e-01 1.0000000000e-02 0.0000000000e+00
2.5000000000e-01 1.0000000000e-02 0.0000000000e+00
2.6000000000e-01 1.0000000000e-02 0.0000000000e+00
2.7000000000e-01 1.0000000000e-02 0.0000000000e+00
2.8000000000e-01 1.0000000000e-02 0.0000000000e+00
2.9000000000e-01 1.0000000000e-02 0.0000000000e+00
3.0000000000e-01 1.0000000000e-02 0.0000000000e+00
3.1000000000e-01 1.0000000000e-02 0.0000000000e+00
3.2000000000e-01 1.0000000000e-02 0.0000000000e+00
3.3000000000e-01 1.0000000000e-02 0.0000000000e+00
3.4000000000e-01 1.0000000000e-02 0.0000000000e+00
3.5000000000e-01 1.0000000000e-02 0.0000000000e+00
3.6000000000e-01 1.0000000000e-02 0.0000000000e+00
3.7000000000e-01 1.0000000000e-02 0.0000000000e+00
3.8000000000e-01 1.0000000000e-02 0.0000000000e+00
3.9000000000e-01 1.0000000000e-02 0.0000000000e+00
4.0000000000e-01 1.0000000000e-02 0.0000000000e+00
4.1000000000e-01 1.0000000000e-02 0.0000000000e+00
4.2000000000e-01 1.0000000000e-02 0.0000000000e+00
4.3000000000e-01 1.0000000000e-02 0.0000000000e+00
4.4000000000e-01 1.0000000000e-02 0.0000000000e+00
4.5000000000e-01 1.0000000000e-02 0.0000000000e+00
4.6000000000e-01 1.0000000000e-02 0.0000000000e+00
4.7000000000e-01 1.0000000000e-02 0.0000000000e+00
4.8000000000e-01 1.0000000000e-02 0.0000000000e+00
4.9000000000e-01 1.0000000000e-02 0.0000000000e+00
5.0000000000e-01 1.0000000000e-02 0.0000000000e+00
5.1000000000e-01 1.0000000000e-02 0.0000000000e+00
5.2000000000e-01 1.0000000000e-02 0.0000000000e+00
5.3000000000e-01 1.0000000000e-02 0.0000000000e+00
5.4000000000e-01 1.0000000000e-02 0.0000000000e+00
5.5000000000e-01 1.0000000000e-02 0.0000000000e+00
5.6000000000e-01 1.0000000000e-02 0.0000000000e+00
5.7000000000e-01 1.0000000000e-02 0.0000000000e+00
5.8000000000e-01 1.0000000000e-02 0.0000000000e+00
5.9000000000e-01 1.0000000000e-02 0.0000000000e+00
6.0000000000e-01 1.0000000000e-02 0.0000000000e+00
6.1000000000e-01 1.0000000000e-02 0.0000000000e+00
6.2000000000e-01 1.0000000000e-02 0.0000000000e+00
6.3000000000e-01 1.0000000000e-02 0.0000000000e+00
6.4000000000e-01 1.0000000000e-02 0.0000000000e+00
6.5000000000e-01 1.0000000000e-02 0.0000000000e+00
6.6000000000e-01 1.0000000000e-02 0.0000000000e+00
6.7000000000e-01 1.0000000000e-02 0.0000000000e+00
6.8000000000e-01 1.0000000000e-02 0.0000000000e+00
6.9000000000e-01 1.0000000000e-02 0.0000000000e+00
7.0000000000e-01 1.0000000000e-02 0.0000000000e+00
7.1000000000e-01 1.0000000000e-02 0.0000000000e+00
7.2000000000e-01 1.0000000000e-02 0.0000000000e+00
7.3000000000e-01 1.0000000000e-02 0.0000000000e+00
7.4000000000e-01 1.0000000000e-02 0.0000000000e+00
7.5000000000e-01 1.0000000000e-02 0.0000000000e+00
7.6000000000e-01 1.0000000000e-02 0.0000000000e+00
7.7000000000e-01 1.0000000000e-02 0.0000000000e+00
7.8000000000e-01 1.0000000000e-02 0.0000000000e+00
7.9000000000e-01 1.0000000000e-02 0.0000000000e+00
8.0000000000e-01 1.0000000000e-02 0.0000000000e+00
8.1000000000e-01 1.0000000000e-02 0.0000000000e+00
8.2000000000e-01 1.0000000000e-02 0.0000000000e+00
8.3000000000e-01 1.0000000000e-02 0.0000000000e+00
8.4000000000e-01 1.0000000000e-02 0.0000000000e+00
8.5000000000e-01 1.0000000000e-02 0.0000000000e+00
8.6000000000e-01 1.0000000000e-02 0.0000000000e+00
8.7000000000e-01 1.0000000000e-02 0.0000000000e+00
8.8000000000e-01 1.0000000000e-02 0.0000000000e+00
8.9000000000e-01 1.0000000000e-02 0.0000000000e+00
9.0000000000e-01 1.0000000000e-02 0.0000000000e+00
9.1000000000e-01 1.0000000000e-02 0.0000000000e+00
9.2000000000e-01 1.0000000000e-02 0.0000000000e+00
[...]
CELL_DATA 10000

SCALARS massDensity float
LOOKUP_TABLE default
1.2002904616e+00
1.2002870492e+00
1.2003245758e+00
1.2003784511e+00
1.2004483150e+00
1.2005335187e+00
1.2006331423e+00
1.2007460380e+00
1.2008708721e+00
1.2010061695e+00
1.2011503511e+00
1.2013017735e+00
1.2014587622e+00
1.2016196470e+00
1.2017827904e+00
1.2019466183e+00
1.2021096420e+00
1.2022704821e+00
1.2024278836e+00
1.2025807315e+00
1.2027280575e+00
1.2028690480e+00
1.2030030431e+00
1.2031295360e+00
1.2032481669e+00
1.2033587155e+00
1.2034610898e+00
1.2035553153e+00
1.2036415203e+00
1.2037199229e+00
1.2037908155e+00
1.2038545520e+00
1.2039115323e+00
1.2039621908e+00
1.2040069833e+00
1.2040463771e+00
1.2040808409e+00
1.2041108371e+00
1.2041368150e+00
1.2041592054e+00
1.2041784165e+00
1.2041948313e+00
1.2042088051e+00
1.2042206651e+00
1.2042307096e+00
1.2042392090e+00
1.2042464065e+00
1.2042525190e+00
1.2042577393e+00
1.2042622376e+00
1.2042661633e+00
1.2042696467e+00
1.2042728014e+00
1.2042757256e+00
1.2042785041e+00
1.2042812096e+00
1.2042839047e+00
1.2042866424e+00
1.2042894682e+00
1.2042924202e+00
1.2042955310e+00
1.2042988275e+00
1.2043023324e+00
1.2043060640e+00
1.2043100376e+00
1.2043142647e+00
1.2043187546e+00
1.2043235130e+00
1.2043285443e+00
1.2043338493e+00
1.2043394275e+00
1.2043452750e+00
1.2043513867e+00
1.2043577539e+00
1.2043643664e+00
1.2043712105e+00
1.2043782708e+00
1.2043855277e+00
1.2043929600e+00
1.2044005419e+00
1.2044082456e+00
1.2044160386e+00
1.2044238855e+00
1.2044317462e+00
1.2044395769e+00
1.2044473281e+00
1.2044549455e+00
1.2044623673e+00
1.2044695241e+00
1.2044763352e+00
1.2044827073e+00
1.2044885280e+00
1.2044936623e+00
1.2044979422e+00
1.2045011575e+00
1.2045030380e+00
1.2045032354e+00
1.2045013029e+00
1.2044967070e+00
1.2045344266e+00
1.2002870492e+00
1.2002798915e+00
1.2003155259e+00
1.2003683826e+00
1.2004377566e+00
1.2005227809e+00
1.2006224069e+00
1.2007354093e+00
1.2008604129e+00
1.2009959182e+00
1.2011403369e+00
1.2012920212e+00
1.2014492992e+00
1.2016105032e+00
1.2017740023e+00
1.2019382258e+00
1.2021016911e+00
1.2022630208e+00
1.2024209630e+00
1.2025744015e+00
1.2027223677e+00
1.2028640431e+00
1.2029987639e+00
1.2031260160e+00
1.2032454330e+00
1.2033567854e+00
1.2034599734e+00
1.2035550129e+00
1.2036420242e+00
1.2037212166e+00
1.2037928757e+00
1.2038573478e+00
1.2039150278e+00
1.2039663445e+00
1.2040117504e+00
1.2040517093e+00
1.2040866881e+00
1.2041171473e+00
1.2041435357e+00
1.2041662834e+00
1.2041857988e+00
1.2042024646e+00
1.2042166366e+00
1.2042286419e+00
1.2042387790e+00
1.2042473181e+00
1.2042545019e+00
1.2042605468e+00
1.2042656448e+00
1.2042699647e+00
1.2042736544e+00
1.2042768431e+00
1.2042796421e+00
1.2042821480e+00
1.2042844434e+00
1.2042865991e+00
1.2042886753e+00
1.2042907234e+00
1.2042927864e+00
1.2042949013e+00
1.2042970983e+00
1.2042994037e+00
1.2043018384e+00
1.2043044206e+00
1.2043071642e+00
1.2043100817e+00
1.2043131816e+00
1.2043164717e+00
1.2043199563e+00
1.2043236391e+00
1.2043275210e+00
1.2043316020e+00
1.2043358794e+00
1.2043403497e+00
1.2043450065e+00
1.2043498426e+00
1.2043548476e+00
1.2043600101e+00
1.2043653154e+00
1.2043707474e+00
1.2043762865e+00
1.2043819116e+00
1.2043875976e+00
1.2043933176e+00
1.2043990405e+00
1.2044047329e+00
1.2044103563e+00
1.2044158690e+00
1.2044212234e+00
1.2044263668e+00
1.2044312383e+00
1.2044357698e+00
1.2044398822e+00
1.2044434863e+00
1.2044464812e+00
1.2044487584e+00
1.2044502113e+00
1.2044507676e+00
1.2044504655e+00
1.2044962647e+00
1.2003245758e+00
1.2003155259e+00
1.2003499067e+00
1.2004017199e+00
1.2004701561e+00
1.2005542751e+00
1.2006529795e+00
1.2007650198e+00
1.2008890074e+00
1.2010234424e+00
1.2011667384e+00
1.2013172567e+00
1.2014733332e+00
1.2016333126e+00
1.2017955730e+00
1.2019585564e+00
1.2021207886e+00
1.2022809032e+00
1.2024376552e+00
1.2025899369e+00
1.2027367843e+00
1.2028773855e+00
1.2030110787e+00
1.2031373542e+00
1.2032558459e+00
1.2033663267e+00
1.2034686960e+00
1.2035629705e+00
1.2036492690e+00
1.2037278006e+00
1.2037988488e+00
1.2038627592e+00
1.2039199241e+00
1.2039707713e+00
1.2040157504e+00
1.2040553239e+00
1.2040899558e+00
1.2041201049e+00
1.2041462170e+00
1.2041687203e+00
1.2041880201e+00
1.2042044970e+00
1.2042185038e+00
1.2042303651e+00
1.2042403768e+00
1.2042488065e+00
1.2042558943e+00
1.2042618542e+00
1.2042668757e+00
1.2042711255e+00
1.2042747494e+00
1.2042778743e+00
1.2042806100e+00
1.2042830509e+00
1.2042852784e+00
1.2042873616e+00
1.2042893595e+00
1.2042913220e+00
1.2042932916e+00
1.2042953035e+00
1.2042973881e+00
1.2042995699e+00
1.2043018703e+00
1.2043043061e+00
1.2043068919e+00
1.2043096388e+00
1.2043125565e+00
1.2043156516e+00
1.2043189299e+00
1.2043223943e+00
1.2043260471e+00
1.2043298879e+00
1.2043339158e+00
1.2043381270e+00
1.2043425173e+00
1.2043470794e+00
1.2043518053e+00
1.2043566838e+00
1.2043617026e+00
1.2043668464e+00
1.2043720982e+00
1.2043774378e+00
1.2043828433e+00
1.2043882891e+00
1.2043937478e+00
1.2043991881e+00
1.2044045764e+00
1.2044098749e+00
1.2044150429e+00
1.2044200354e+00
1.2044248039e+00
1.2044292955e+00
1.2044334555e+00
1.2044372274e+00
1.2044405605e+00
1.2044434179e+00
1.2044457995e+00
1.2044477813e+00
1.2044495952e+00
1.2044990594e+00
1.2003784511e+00
1.2003683826e+00
1.2004017199e+00
1.2004524320e+00
1.2005197028e+00
1.2006025708e+00
1.2006999250e+00
1.2008105069e+00
1.2009329305e+00
1.2010657007e+00
1.2012072449e+00
1.2013559367e+00
1.2015101309e+00
1.2016681871e+00
1.2018285036e+00
1.2019895371e+00
1.2021498320e+00
1.2023080348e+00
1.2024629161e+00
1.2026133781e+00
1.2027584689e+00
1.2028973830e+00
1.2030294674e+00
1.2031542154e+00
1.2032712663e+00
1.2033803935e+00
1.2034814990e+00
1.2035745980e+00
1.2036598094e+00
1.2037373395e+00
1.2038074705e+00
1.2038705440e+00
1.2039269501e+00
1.2039771119e+00
1.2040214761e+00
1.2040605002e+00
1.2040946447e+00
1.2041243636e+00
1.2041500987e+00
1.2041722735e+00
1.2041912894e+00
1.2042075221e+00
1.2042213206e+00
1.2042330051e+00
1.2042428677e+00
1.2042511721e+00
1.2042581546e+00
1.2042640258e+00
1.2042689718e+00
1.2042731563e+00
1.2042767221e+00
1.2042797935e+00
1.2042824776e+00
1.2042848668e+00
1.2042870399e+00
1.2042890645e+00
1.2042909976e+00
1.2042928877e+00
1.2042947755e+00
1.2042966955e+00
1.2042986762e+00
1.2043007420e+00
1.2043029125e+00
1.2043052046e+00
1.2043076316e+00
1.2043102051e+00
1.2043129334e+00
1.2043158242e+00
1.2043188819e+00
1.2043221110e+00
1.2043255128e+00
1.2043290886e+00
1.2043328369e+00
1.2043367559e+00
1.2043408411e+00
1.2043450874e+00
1.2043494869e+00
1.2043540311e+00
1.2043587082e+00
1.2043635056e+00
1.2043684075e+00
1.2043733969e+00
1.2043784535e+00
1.2043835555e+00
1.2043886782e+00
1.2043937949e+00
1.2043988760e+00
1.2044038905e+00
1.2044088042e+00
1.2044135822e+00
1.2044181874e+00
1.2044225838e+00
1.2044267369e+00
1.2044306192e+00
1.2044342157e+00
1.2044375368e+00
1.2044406361e+00
1.2044436441e+00
1.2044468150e+00
1.2044976782e+00
1.2004483150e+00
1.2004377566e+00
1.2004701561e+00
1.2005197028e+00
1.2005856060e+00
1.2006669166e+00
1.2007625285e+00
1.2008711940e+00
1.2009915376e+00
1.2011220832e+00
1.2012612756e+00
1.2014075135e+00
1.2015591723e+00
1.2017146393e+00
1.2018723337e+00
1.2020307390e+00
1.2021884188e+00
1.2023440431e+00
1.2024963982e+00
1.2026444056e+00
1.2027871251e+00
1.2029237652e+00
1.2030536801e+00
1.2031763728e+00
1.2032914855e+00
1.2033987971e+00
1.2034982091e+00
1.2035897384e+00
1.2036735012e+00
1.2037497027e+00
1.2038186203e+00
1.2038805926e+00
1.2039360037e+00
1.2039852726e+00
1.2040288392e+00
1.2040671558e+00
1.2041006763e+00
1.2041298488e+00
1.2041551086e+00
1.2041768732e+00
1.2041955376e+00
1.2042114720e+00
1.2042250193e+00
1.2042364942e+00
1.2042461835e+00
1.2042543457e+00
1.2042612125e+00
1.2042669899e+00
1.2042718600e+00
1.2042759822e+00
1.2042794960e+00
1.2042825220e+00
1.2042851645e+00
1.2042875129e+00
1.2042896437e+00
1.2042916217e+00
1.2042935022e+00
1.2042953312e+00
1.2042971483e+00
1.2042989857e+00
1.2043008712e+00
1.2043028272e+00
1.2043048729e+00
1.2043070237e+00
1.2043092927e+00
1.2043116900e+00
1.2043142245e+00
1.2043169024e+00
1.2043197293e+00
1.2043227082e+00
1.2043258420e+00
1.2043291311e+00
1.2043325756e+00
1.2043361733e+00
1.2043399217e+00
1.2043438157e+00
1.2043478498e+00
1.2043520158e+00
1.2043563047e+00
1.2043607048e+00
1.2043652037e+00
1.2043697858e+00
1.2043744347e+00
1.2043791312e+00
1.2043838550e+00
1.2043885834e+00
1.2043932927e+00
1.2043979575e+00
1.2044025521e+00
1.2044070501e+00
1.2044114268e+00
1.2044156596e+00
1.2044197320e+00
1.2044236366e+00
1.2044273828e+00
1.2044310052e+00
1.2044345788e+00
1.2044382375e+00
1.2044421979e+00
1.2044927895e+00
1.2005335187e+00
1.2005227809e+00
1.2005542751e+00
1.2006025708e+00
1.2006669166e+00
1.2007463868e+00
1.2008398983e+00
1.2009462222e+00
1.2010640085e+00
1.2011918042e+00
1.2013280850e+00
1.2014712763e+00
1.2016197878e+00
1.2017720344e+00
1.2019264696e+00
1.2020816031e+00
1.2022360298e+00
1.2023884425e+00
1.2025376541e+00
1.2026826039e+00
1.2028223723e+00
1.2029561805e+00
1.2030833972e+00
1.2032035325e+00
1.2033162378e+00
1.2034212939e+00
1.2035186067e+00
1.2036081912e+00
1.2036901638e+00
1.2037647248e+00
1.2038321488e+00
1.2038927677e+00
1.2039469604e+00
1.2039951379e+00
1.2040377336e+00
1.2040751913e+00
1.2041079576e+00
1.2041364720e+00
1.2041611623e+00
1.2041824376e+00
1.2042006855e+00
1.2042162685e+00
1.2042295223e+00
1.2042407547e+00
1.2042502459e+00
1.2042582483e+00
1.2042649876e+00
1.2042706645e+00
1.2042754559e+00
1.2042795167e+00
1.2042829819e+00
1.2042859685e+00
1.2042885768e+00
1.2042908931e+00
1.2042929906e+00
1.2042949318e+00
1.2042967690e+00
1.2042985466e+00
1.2043003013e+00
1.2043020643e+00
1.2043038610e+00
1.2043057130e+00
1.2043076375e+00
1.2043096495e+00
1.2043117604e+00
1.2043139803e+00
1.2043163165e+00
1.2043187758e+00
1.2043213623e+00
1.2043240802e+00
1.2043269311e+00
1.2043299168e+00
1.2043330368e+00
1.2043362905e+00
1.2043396753e+00
1.2043431881e+00
1.2043468236e+00
1.2043505761e+00
1.2043544376e+00
1.2043583993e+00
1.2043624501e+00
1.2043665782e+00
1.2043707693e+00
1.2043750088e+00
1.2043792796e+00
1.2043835644e+00
1.2043878444e+00
1.2043921012e+00
1.2043963159e+00
1.2044004714e+00
1.2044045526e+00
1.2044085491e+00
1.2044124571e+00
1.2044162837e+00
1.2044200514e+00
1.2044238056e+00
1.2044276223e+00
1.2044316190e+00
1.2044359598e+00
1.2044850503e+00
1.2006331423e+00
1.2006224069e+00
1.2006529795e+00
1.2006999250e+00
1.2007625285e+00
1.2008398983e+00
1.2009309787e+00
1.2010345734e+00
1.2011493610e+00
1.2012739254e+00
1.2014067743e+00
1.2015463735e+00
1.2016911670e+00
1.2018396107e+00
1.2019901916e+00
1.2021414582e+00
1.2022920355e+00
1.2024406506e+00
1.2025861410e+00
1.2027274743e+00
1.2028637492e+00
1.2029942080e+00
1.2031182315e+00
1.2032353437e+00
1.2033452017e+00
1.2034475942e+00
1.2035424273e+00
1.2036297185e+00
1.2037095802e+00
1.2037822109e+00
1.2038478782e+00
1.2039069088e+00
1.2039596727e+00
1.2040065736e+00
1.2040480350e+00
1.2040844921e+00
1.2041163810e+00
1.2041441323e+00
1.2041681634e+00
1.2041888744e+00
1.2042066433e+00
1.2042218237e+00
1.2042347427e+00
1.2042457000e+00
1.2042549680e+00
1.2042627917e+00
1.2042693903e+00
1.2042749580e+00
1.2042796660e+00
1.2042836637e+00
1.2042870813e+00
1.2042900310e+00
1.2042926095e+00
1.2042948990e+00
1.2042969696e+00
1.2042988803e+00
1.2043006811e+00
1.2043024133e+00
1.2043041120e+00
1.2043058056e+00
1.2043075185e+00
1.2043092697e+00
1.2043110760e+00
1.2043129499e+00
1.2043149029e+00
1.2043169431e+00
1.2043190781e+00
1.2043213129e+00
1.2043236524e+00
1.2043260994e+00
1.2043286566e+00
1.2043313249e+00
1.2043341051e+00
1.2043369962e+00
1.2043399973e+00
1.2043431054e+00
1.2043463174e+00
1.2043496282e+00
1.2043530324e+00
1.2043565225e+00
1.2043600907e+00
1.2043637271e+00
1.2043674216e+00
1.2043711621e+00
1.2043749366e+00
1.2043787318e+00
1.2043825351e+00
1.2043863333e+00
1.2043901151e+00
1.2043938705e+00
1.2043975936e+00
1.2044012824e+00
1.2044049432e+00
1.2044085913e+00
1.2044122562e+00
1.2044159847e+00
1.2044198460e+00
1.2044239338e+00
1.2044283666e+00
1.2044750464e+00
1.2007460380e+00
1.2007354093e+00
1.2007650198e+00
1.2008105069e+00
1.2008711940e+00
1.2009462222e+00
1.2010345734e+00
1.2011350847e+00
1.2012464765e+00
1.2013673692e+00
1.2014963167e+00
1.2016318241e+00
1.2017723830e+00
1.2019164892e+00
1.2020626759e+00
1.2022095288e+00
1.2023557149e+00
1.2024999933e+00
1.2026412375e+00
1.2027784399e+00
1.2029107278e+00
1.2030373610e+00
1.2031577404e+00
1.2032714003e+00
1.2033780104e+00
1.2034773629e+00
1.2035693694e+00
1.2036540458e+00
1.2037315040e+00
1.2038019367e+00
1.2038656067e+00
1.2039228318e+00
1.2039739744e+00
1.2040194272e+00
1.2040596043e+00
1.2040949289e+00
1.2041258269e+00
1.2041527167e+00
1.2041760053e+00
1.2041960813e+00
1.2042133122e+00
1.2042280411e+00
1.2042405855e+00
1.2042512356e+00
1.2042602550e+00
1.2042678806e+00
1.2042743237e+00
1.2042797716e+00
1.2042843888e+00
1.2042883191e+00
1.2042916869e+00
1.2042945996e+00
1.2042971492e+00
1.2042994140e+00
1.2043014601e+00
1.2043033436e+00
1.2043051109e+00
1.2043068012e+00
1.2043084465e+00
1.2043100738e+00
1.2043117044e+00
1.2043133567e+00
1.2043150448e+00
1.2043167810e+00
1.2043185744e+00
1.2043204332e+00
1.2043223630e+00
1.2043243693e+00
1.2043264554e+00
1.2043286248e+00
1.2043308792e+00
1.2043332204e+00
1.2043356487e+00
1.2043381645e+00
1.2043407666e+00
1.2043434539e+00
1.2043462238e+00
1.2043490733e+00
1.2043519981e+00
1.2043549936e+00
1.2043580536e+00
1.2043611718e+00
1.2043643403e+00
1.2043675516e+00
1.2043707969e+00
1.2043740682e+00
1.2043773572e+00
1.2043806569e+00
1.2043839616e+00
1.2043872685e+00
1.2043905779e+00
1.2043938956e+00
1.2043972334e+00
1.2044006124e+00
1.2044040637e+00
1.2044076322e+00
1.2044113761e+00
1.2044153683e+00
1.2044196903e+00
1.2044632886e+00
1.2008708721e+00
1.2008604129e+00
1.2008890074e+00
1.2009329305e+00
1.2009915376e+00
1.2010640085e+00
1.2011493610e+00
1.2012464765e+00
1.2013541153e+00
1.2014709478e+00
1.2015955714e+00
1.2017265446e+00
1.2018624039e+00
1.2020016982e+00
1.2021430042e+00
1.2022849574e+00
1.2024262637e+00
1.2025657259e+00
1.2027022496e+00
1.2028348633e+00
1.2029627182e+00
1.2030851011e+00
1.2032014289e+00
1.2033112539e+00
1.2034142536e+00
1.2035102301e+00
1.2035990962e+00
1.2036808702e+00
1.2037556600e+00
1.2038236549e+00
1.2038851095e+00
1.2039403344e+00
1.2039896807e+00
1.2040335311e+00
1.2040722870e+00
1.2041063603e+00
1.2041361632e+00
1.2041621025e+00
1.2041845716e+00
1.2042039475e+00
1.2042205853e+00
1.2042348169e+00
1.2042469485e+00
1.2042572602e+00
1.2042660057e+00
1.2042734128e+00
1.2042796845e+00
1.2042850001e+00
1.2042895173e+00
1.2042933729e+00
1.2042966859e+00
1.2042995579e+00
1.2043020762e+00
1.2043043146e+00
1.2043063356e+00
1.2043081911e+00
1.2043099250e+00
1.2043115729e+00
1.2043131650e+00
1.2043147250e+00
1.2043162731e+00
1.2043178251e+00
1.2043193941e+00
1.2043209903e+00
1.2043226222e+00
1.2043242961e+00
1.2043260178e+00
1.2043277911e+00
1.2043296196e+00
1.2043315057e+00
1.2043334516e+00
1.2043354585e+00
1.2043375277e+00
1.2043396592e+00
1.2043418534e+00
1.2043441094e+00
1.2043464263e+00
1.2043488021e+00
1.2043512348e+00
1.2043537211e+00
1.2043562578e+00
1.2043588408e+00
1.2043614658e+00
1.2043641281e+00
1.2043668233e+00
1.2043695471e+00
1.2043722963e+00
1.2043750684e+00
1.2043778635e+00
1.2043806838e+00
1.2043835356e+00
1.2043864291e+00
1.2043893811e+00
1.2043924147e+00
1.2043955615e+00
1.2043988614e+00
1.2044023633e+00
1.2044061219e+00
1.2044101934e+00
1.2044502218e+00
1.2010061695e+00
1.2009959182e+00
1.2010234424e+00
1.2010657007e+00
1.2011220832e+00
1.2011918042e+00
1.2012739254e+00
1.2013673692e+00
1.2014709478e+00
1.2015833779e+00
1.2017033137e+00
1.2018293630e+00
1.2019601209e+00
1.2020941853e+00
1.2022301894e+00
1.2023668141e+00
1.2025028168e+00
1.2026370394e+00
1.2027684312e+00
1.2028960515e+00
1.2030190859e+00
1.2031368433e+00
1.2032487650e+00
1.2033544164e+00
1.2034534901e+00
1.2035457932e+00
1.2036312451e+00
1.2037098622e+00
1.2037817520e+00
1.2038470966e+00
1.2039061449e+00
1.2039591965e+00
1.2040065929e+00
1.2040487035e+00
1.2040859178e+00
1.2041186332e+00
1.2041472489e+00
1.2041721571e+00
1.2041937379e+00
1.2042123544e+00
1.2042283489e+00
1.2042420406e+00
1.2042537237e+00
1.2042636670e+00
1.2042721136e+00
1.2042792816e+00
1.2042853648e+00
1.2042905342e+00
1.2042949396e+00
1.2042987112e+00
1.2043019612e+00
1.2043047860e+00
1.2043072673e+00
1.2043094747e+00
1.2043114659e+00
1.2043132899e+00
1.2043149863e+00
1.2043165888e+00
1.2043181237e+00
1.2043196136e+00
1.2043210756e+00
1.2043225243e+00
1.2043239705e+00
1.2043254236e+00
1.2043268902e+00
1.2043283763e+00
1.2043298860e+00
1.2043314231e+00
1.2043329901e+00
1.2043345895e+00
1.2043362230e+00
1.2043378923e+00
1.2043395983e+00
1.2043413422e+00
1.2043431243e+00
1.2043449452e+00
1.2043468047e+00
1.2043487025e+00
1.2043506379e+00
1.2043526101e+00
1.2043546176e+00
1.2043566592e+00
1.2043587332e+00
1.2043608384e+00
1.2043629735e+00
1.2043651385e+00
1.2043673338e+00
1.2043695618e+00
1.2043718264e+00
1.2043741350e+00
1.2043764973e+00
1.2043789281e+00
1.2043814462e+00
1.2043840762e+00
1.2043868483e+00
1.2043897983e+00
1.2043929661e+00
1.2043963940e+00
1.2044001200e+00
1.2044362375e+00
1.2011503511e+00
1.2011403369e+00
1.2011667384e+00
1.2012072449e+00
1.2012612756e+00
1.2013280850e+00
1.2014067743e+00
1.2014963167e+00
1.2015955714e+00
1.2017033137e+00
1.2018182497e+00
1.2019390494e+00
1.2020643613e+00
1.2021928453e+00
1.2023231860e+00
1.2024541223e+00
1.2025844575e+00
1.2027130845e+00
1.2028389904e+00
1.2029612765e+00
1.2030791571e+00
1.2031919724e+00
1.2032991827e+00
1.2034003746e+00
1.2034952503e+00
1.2035836284e+00
1.2036654299e+00
1.2037406744e+00
1.2038094643e+00
1.2038719782e+00
1.2039284551e+00
1.2039791861e+00
1.2040244994e+00
1.2040647528e+00
1.2041003205e+00
1.2041315865e+00
1.2041589342e+00
1.2041827414e+00
1.2042033730e+00
1.2042211777e+00
1.2042364837e+00
1.2042495968e+00
1.2042607983e+00
1.2042703450e+00
1.2042784687e+00
1.2042853769e+00
1.2042912539e+00
1.2042962617e+00
1.2043005422e+00
1.2043042179e+00
1.2043073948e+00
1.2043101627e+00
1.2043125987e+00
1.2043147668e+00
1.2043167211e+00
1.2043185061e+00
1.2043201588e+00
1.2043217089e+00
1.2043231811e+00
1.2043245945e+00
1.2043259651e+00
1.2043273047e+00
1.2043286235e+00
1.2043299284e+00
1.2043312259e+00
1.2043325199e+00
1.2043338146e+00
1.2043351123e+00
1.2043364158e+00
1.2043377266e+00
1.2043390469e+00
1.2043403778e+00
1.2043417211e+00
1.2043430777e+00
1.2043444494e+00
1.2043458368e+00
1.2043472414e+00
1.2043486640e+00
1.2043501056e+00
1.2043515668e+00
1.2043530488e+00
1.2043545523e+00
1.2043560785e+00
1.2043576288e+00
1.2043592055e+00
1.2043608115e+00
1.2043624512e+00
1.2043641301e+00
1.2043658566e+00
1.2043676407e+00
1.2043694963e+00
1.2043714399e+00
1.2043734927e+00
1.2043756792e+00
1.2043780282e+00
1.2043805715e+00
1.2043833428e+00
1.2043863746e+00
1.2043896945e+00
1.2044216808e+00
1.2013017735e+00
1.2012920212e+00
1.2013172567e+00
1.2013559367e+00
1.2014075135e+00
1.2014712763e+00
1.2015463735e+00
1.2016318241e+00
1.2017265446e+00
1.2018293630e+00
1.2019390494e+00
1.2020543299e+00
1.2021739191e+00
1.2022965327e+00
1.2024209189e+00
1.2025458684e+00
1.2026702424e+00
1.2027929782e+00
1.2029131123e+00
1.2030297812e+00
1.2031422378e+00
1.2032498478e+00
1.2033520991e+00
1.2034485934e+00
1.2035390500e+00
1.2036232935e+00
1.2037012523e+00
1.2037729441e+00
1.2038384708e+00
1.2038980032e+00
1.2039517735e+00
1.2040000603e+00
1.2040431811e+00
1.2040814784e+00
1.2041153129e+00
1.2041450519e+00
1.2041710640e+00
1.2041937104e+00
1.2042133410e+00
1.2042302886e+00
1.2042448668e+00
1.2042573669e+00
1.2042680570e+00
1.2042771810e+00
1.2042849589e+00
1.2042915872e+00
1.2042972400e+00
1.2043020702e+00
1.2043062110e+00
1.2043097776e+00
1.2043128686e+00
1.2043155684e+00
1.2043179477e+00
1.2043200664e+00
1.2043219735e+00
1.2043237102e+00
1.2043253096e+00
1.2043267989e+00
1.2043281994e+00
1.2043295287e+00
1.2043308000e+00
1.2043320241e+00
1.2043332086e+00
1.2043343603e+00
1.2043354833e+00
1.2043365818e+00
1.2043376581e+00
1.2043387149e+00
1.2043397537e+00
1.2043407765e+00
1.2043417847e+00
1.2043427801e+00