# vtk DataFile Version 2.0
Blank
ASCII
DATASET STRUCTURED_GRID
DIMENSIONS 101 101 2
POINTS 20402 float
0.0000000000e+00 0.0000000000e+00 0.0000000000e+00
1.0000000000e-02 0.0000000000e+00 0.0000000000e+00
2.0000000000e-02 0.0000000000e+00 0.0000000000e+00
3.0000000000e-02 0.0000000000e+00 0.0000000000e+00
4.0000000000e-02 0.0000000000e+00 0.0000000000e+00
5.0000000000e-02 0.0000000000e+00 0.0000000000e+00
6.0000000000e-02 0.0000000000e+00 0.0000000000e+00
7.0000000000e-02 0.0000000000e+00 0.0000000000e+00
8.0000000000e-02 0.0000000000e+00 0.0000000000e+00
9.0000000000e-02 0.0000000000e+00 0.0000000000e+00
1.0000000000e-01 0.0000000000e+00 0.0000000000e+00
1.1000000000e-01 0.0000000000e+00 0.0000000000e+00
1.2000000000e-01 0.0000000000e+00 0.0000000000e+00
1.3000000000e-01 0.0000000000e+00 0.0000000000e+00
1.4000000000e-01 0.0000000000e+00 0.0000000000e+00
1.5000000000e-01 0.0000000000e+00 0.0000000000e+00
1.6000000000e-01 0.0000000000e+00 0.0000000000e+00
1.7000000000e-01 0.0000000000e+00 0.0000000000e+00
1.8000000000e-01 0.0000000000e+00 0.0000000000e+00
1.9000000000e-01 0.0000000000e+00 0.0000000000e+00
2.0000000000e-01 0.0000000000e+00 0.0000000000e+00
2.1000000000e-01 0.0000000000e+00 0.0000000000e+00
2.2000000000e-01 0.0000000000e+00 0.0000000000e+00
2.3000000000e-01 0.0000000000e+00 0.0000000000e+00
2.4000000000e-01 0.0000000000e+00 0.0000000000e+00
2.5000000000e-01 0.0000000000e+00 0.0000000000e+00
2.6000000000e-01 0.0000000000e+00 0.0000000000e+00
2.7000000000e-01 0.0000000000e+00 0.0000000000e+00
2.8000000000e-01 0.0000000000e+00 0.0000000000e+00
2.9000000000e-01 0.0000000000e+00 0.0000000000e+00
3.0000000000e-01 0.0000000000e+00 0.0000000000e+00
3.1000000000e-01 0.0000000000e+00 0.0000000000e+00
3.2000000000e-01 0.0000000000e+00 0.0000000000e+00
3.3000000000e-01 0.0000000000e+00 0.0000000000e+00
3.4000000000e-01 0.0000000000e+00 0.0000000000e+00
3.5000000000e-01 0.0000000000e+00 0.0000000000e+00
3.6000000000e-01 0.0000000000e+00 0.0000000000e+00
3.7000000000e-01 0.0000000000e+00 0.0000000000e+00
3.8000000000e-01 0.0000000000e+00 0.0000000000e+00
3.9000000000e-01 0.0000000000e+00 0.0000000000e+00
4.0000000000e-01 0.0000000000e+00 0.0000000000e+00
4.1000000000e-01 0.0000000000e+00 0.0000000000e+00
4.2000000000e-01 0.0000000000e+00 0.0000000000e+00
4.3000000000e-01 0.0000000000e+00 0.0000000000e+00
4.4000000000e-01 0.0000000000e+00 0.0000000000e+00
4.5000000000e-01 0.0000000000e+00 0.0000000000e+00
4.6000000000e-01 0.0000000000e+00 0.0000000000e+00
4.7000000000e-01 0.0000000000e+00 0.0000000000e+00
4.8000000000e-01 0.0000000000e+00 0.0000000000e+00
4.9000000000e-01 0.0000000000e+00 0.0000000000e+00
5.0000000000e-01 0.0000000000e+00 0.0000000000e+00
5.1000000000e-01 0.0000000000e+00 0.0000000000e+00
5.2000000000e-01 0.0000000000e+00 0.0000000000e+00
5.3000000000e-01 0.0000000000e+00 0.0000000000e+00
5.4000000000e-01 0.0000000000e+00 0.0000000000e+00
5.5000000000e-01 0.0000000000e+00 0.0000000000e+00
5.6000000000e-01 0.0000000000e+00 0.0000000000e+00
5.7000000000e-01 0.0000000000e+00 0.0000000000e+00
5.8000000000e-01 0.0000000000e+00 0.0000000000e+00
5.9000000000e-01 0.0000000000e+00 0.0000000000e+00
6.0000000000e-01 0.0000000000e+00 0.0000000000e+00
6.1000000000e-01 0.0000000000e+00 0.0000000000e+00
6.2000000000e-01 0.0000000000e+00 0.0000000000e+00
6.3000000000e-01 0.0000000000e+00 0.0000000000e+00
6.4000000000e-01 0.0000000000e+00 0.0000000000e+00
6.5000000000e-01 0.0000000000e+00 0.0000000000e+00
6.6000000000e-01 0.0000000000e+00 0.0000000000e+00
6.7000000000e-01 0.0000000000e+00 0.0000000000e+00
6.8000000000e-01 0.0000000000e+00 0.0000000000e+00
6.9000000000e-01 0.0000000000e+00 0.0000000000e+00
7.0000000000e-01 0.0000000000e+00 0.0000000000e+00
7.1000000000e-01 0.0000000000e+00 0.0000000000e+00
7.2000000000e-01 0.0000000000e+00 0.0000000000e+00
7.3000000000e-01 0.0000000000e+00 0.0000000000e+00
7.4000000000e-01 0.0000000000e+00 0.0000000000e+00
7.5000000000e-01 0.0000000000e+00 0.0000000000e+00
7.6000000000e-01 0.0000000000e+00 0.0000000000e+00
7.7000000000e-01 0.0000000000e+00 0.0000000000e+00
7.8000000000e-01 0.0000000000e+00 0.0000000000e+00
7.9000000000e-01 0.0000000000e+00 0.0000000000e+00
8.0000000000e-01 0.0000000000e+00 0.0000000000e+00
8.1000000000e-01 0.0000000000e+00 0.0000000000e+00
8.2000000000e-01 0.0000000000e+00 0.0000000000e+00
8.3000000000e-01 0.0000000000e+00 0.0000000000e+00
8.4000000000e-01 0.0000000000e+00 0.0000000000e+00
8.5000000000e-01 0.0000000000e+00 0.0000000000e+00
8.6000000000e-01 0.0000000000e+00 0.0000000000e+00
8.7000000000e-01 0.0000000000e+00 0.0000000000e+00
8.8000000000e-01 0.0000000000e+00 0.0000000000e+00
8.9000000000e-01 0.0000000000e+00 0.0000000000e+00
9.0000000000e-01 0.0000000000e+00 0.0000000000e+00
9.1000000000e-01 0.0000000000e+00 0.0000000000e+00
9.2000000000e-01 0.0000000000e+00 0.0000000000e+00
9.3000000000e-01 0.0000000000e+00 0.0000000000e+00
9.4000000000e-01 0.0000000000e+00 0.0000000000e+00
9.5000000000e-01 0.0000000000e+00 0.0000000000e+00
9.6000000000e-01 0.0000000000e+00 0.0000000000e+00
9.7000000000e-01 0.0000000000e+00 0.0000000000e+00
9.8000000000e-01 0.0000000000e+00 0.0000000000e+00
9.9000000000e-01 0.0000000000e+00 0.0000000000e+00
1.0000000000e+00 0.0000000000e+00 0.0000000000e+00
0.0000000000e+00 1.0000000000e-02 0.0000000000e+00
1.0000000000e-02 1.0000000000e-02 0.0000000000e+00
2.0000000000e-02 1.0000000000e-02 0.0000000000e+00
3.0000000000e-02 1.0000000000e-02 0.0000000000e+00
4.0000000000e-02 1.0000000000e-02 0.0000000000e+00
5.0000000000e-02 1.0000000000e-02 0.0000000000e+00
6.0000000000e-02 1.0000000000e-02 0.0000000000e+00
7.0000000000e-02 1.0000000000e-02 0.0000000000e+00
8.0000000000e-02 1.0000000000e-02 0.0000000000e+00
9.0000000000e-02 1.0000000000e-02 0.0000000000e+00
1.0000000000e-01 1.0000000000e-02 0.0000000000e+00
1.1000000000e-01 1.0000000000e-02 0.0000000000e+00
1.2000000000e-01 1.0000000000e-02 0.0000000000e+00
1.3000000000e-01 1.0000000000e-02 0.0000000000e+00
1.4000000000e-01 1.0000000000e-02 0.0000000000e+00
1.5000000000e-01 1.0000000000e-02 0.0000000000e+00
1.6000000000e-01 1.0000000000e-02 0.0000000000e+00
1.7000000000e-01 1.0000000000e-02 0.0000000000e+00
1.8000000000e-01 1.0000000000e-02 0.0000000000e+00
1.9000000000e-01 1.0000000000e-02 0.0000000000e+00
2.0000000000e-01 1.0000000000e-02 0.0000000000e+00
2.1000000000e-01 1.0000000000e-02 0.0000000000e+00
2.2000000000e-01 1.0000000000e-02 0.0000000000e+00
2.3000000000e-01 1.0000000000e-02 0.0000000000e+00
2.4000000000e-01 1.0000000000e-02 0.0000000000e+00
2.5000000000e-01 1.0000000000e-02 0.0000000000e+00
2.6000000000e-01 1.0000000000e-02 0.0000000000e+00
2.7000000000e-01 1.0000000000e-02 0.0000000000e+00
2.8000000000e-01 1.0000000000e-02 0.0000000000e+00
2.9000000000e-01 1.0000000000e-02 0.0000000000e+00
3.0000000000e-01 1.0000000000e-02 0.0000000000e+00
3.1000000000e-01 1.0000000000e-02 0.0000000000e+00
3.2000000000e-01 1.0000000000e-02 0.0000000000e+00
3.3000000000e-01 1.0000000000e-02 0.0000000000e+00
3.4000000000e-01 1.0000000000e-02 0.0000000000e+00
3.5000000000e-01 1.0000000000e-02 0.0000000000e+00
3.6000000000e-01 1.0000000000e-02 0.0000000000e+00
3.7000000000e-01 1.0000000000e-02 0.0000000000e+00
3.8000000000e-01 1.0000000000e-02 0.0000000000e+00
3.9000000000e-01 1.0000000000e-02 0.0000000000e+00
4.0000000000e-01 1.0000000000e-02 0.0000000000e+00
4.1000000000e-01 1.0000000000e-02 0.0000000000e+00
4.2000000000e-01 1.0000000000e-02 0.0000000000e+00
4.3000000000e-01 1.0000000000e-02 0.0000000000e+00
4.4000000000e-01 1.0000000000e-02 0.0000000000e+00
4.5000000000e-01 1.0000000000e-02 0.0000000000e+00
4.6000000000e-01 1.0000000000e-02 0.0000000000e+00
4.7000000000e-01 1.0000000000e-02 0.0000000000e+00
4.8000000000e-01 1.0000000000e-02 0.0000000000e+00
4.9000000000e-01 1.0000000000e-02 0.0000000000e+00
5.0000000000e-01 1.0000000000e-02 0.0000000000e+00
5.1000000000e-01 1.0000000000e-02 0.0000000000e+00
5.2000000000e-01 1.0000000000e-02 0.0000000000e+00
5.3000000000e-01 1.0000000000e-02 0.0000000000e+00
5.4000000000e-01 1.0000000000e-02 0.0000000000e+00
5.5000000000e-01 1.0000000000e-02 0.0000000000e+00
5.6000000000e-01 1.0000000000e-02 0.0000000000e+00
5.7000000000e-01 1.0000000000e-02 0.0000000000e+00
5.8000000000e-01 1.0000000000e-02 0.0000000000e+00
5.9000000000e-01 1.0000000000e-02 0.0000000000e+00
6.0000000000e-01 1.0000000000e-02 0.0000000000e+00
6.1000000000e-01 1.0000000000e-02 0.0000000000e+00
6.2000000000e-01 1.0000000000e-02 0.0000000000e+00
6.3000000000e-01 1.0000000000e-02 0.0000000000e+00
6.4000000000e-01 1.0000000000e-02 0.0000000000e+00
6.5000000000e-01 1.0000000000e-02 0.0000000000e+00
6.6000000000e-01 1.0000000000e-02 0.0000000000e+00
6.7000000000e-01 1.0000000000e-02 0.0000000000e+00
6.8000000000e-01 1.0000000000e-02 0.0000000000e+00
6.9000000000e-01 1.0000000000e-02 0.0000000000e+00
7.0000000000e-01 1.0000000000e-02 0.0000000000e+00
7.1000000000e-01 1.0000000000e-02 0.0000000000e+00
7.2000000000e-01 1.0000000000e-02 0.0000000000e+00
7.3000000000e-01 1.0000000000e-02 0.0000000000e+00
7.4000000000e-01 1.0000000000e-02 0.0000000000e+00
7.5000000000e-01 1.0000000000e-02 0.0000000000e+00
7.6000000000e-01 1.0000000000e-02 0.0000000000e+00
7.7000000000e-01 1.0000000000e-02 0.0000000000e+00
7.8000000000e-01 1.0000000000e-02 0.0000000000e+00
7.9000000000e-01 1.0000000000e-02 0.0000000000e+00
8.0000000000e-01 1.0000000000e-02 0.0000000000e+00
8.1000000000e-01 1.0000000000e-02 0.0000000000e+00
8.2000000000e-01 1.0000000000e-02 0.0000000000e+00
8.3000000000e-01 1.0000000000e-02 0.0000000000e+00
8.4000000000e-01 1.0000000000e-02 0.0000000000e+00
8.5000000000e-01 1.0000000000e-02 0.0000000000e+00
8.6000000000e-01 1.0000000000e-02 0.0000000000e+00
8.7000000000e-01 1.0000000000e-02 0.0000000000e+00
8.8000000000e-01 1.0000000000e-02 0.0000000000e+00
8.9000000000e-01 1.0000000000e-02 0.0000000000e+00
9.0000000000e-01 1.0000000000e-02 0.0000000000e+00
9.1000000000e-01 1.0000000000e-02 0.0000000000e+00
9.2000000000e-01 1.0000000000e-02 0.0000000000e+00
[...]
CELL_DATA 10000

SCALARS massDensity float
LOOKUP_TABLE default
1.1975563323e+00
1.1976176290e+00
1.1977078686e+00
1.1978433478e+00
1.1980209789e+00
1.1982369190e+00
1.1984866935e+00
1.1987653419e+00
1.1990675520e+00
1.1993878241e+00
1.1997206141e+00
1.2000604940e+00
1.2004022779e+00
1.2007411536e+00
1.2010727709e+00
1.2013933290e+00
1.2016996160e+00
1.2019890469e+00
1.2022596557e+00
1.2025100876e+00
1.2027395533e+00
1.2029477877e+00
1.2031349793e+00
1.2033017107e+00
1.2034488791e+00
1.2035776321e+00
1.2036892922e+00
1.2037853001e+00
1.2038671516e+00
1.2039363550e+00
1.2039943850e+00
1.2040426567e+00
1.2040824966e+00
1.2041151319e+00
1.2041416767e+00
1.2041631332e+00
1.2041803889e+00
1.2041942259e+00
1.2042053250e+00
1.2042142790e+00
1.2042215998e+00
1.2042277323e+00
1.2042330616e+00
1.2042379248e+00
1.2042426156e+00
1.2042473930e+00
1.2042524820e+00
1.2042580777e+00
1.2042643424e+00
1.2042714060e+00
1.2042793601e+00
1.2042882564e+00
1.2042981001e+00
1.2043088488e+00
1.2043204083e+00
1.2043326347e+00
1.2043453348e+00
1.2043582733e+00
1.2043711785e+00
1.2043837556e+00
1.2043956967e+00
1.2044066964e+00
1.2044164651e+00
1.2044247433e+00
1.2044313128e+00
1.2044360078e+00
1.2044387203e+00
1.2044394047e+00
1.2044380770e+00
1.2044348119e+00
1.2044297366e+00
1.2044230221e+00
1.2044148738e+00
1.2044055201e+00
1.2043952024e+00
1.2043841646e+00
1.2043726442e+00
1.2043608649e+00
1.2043490311e+00
1.2043373236e+00
1.2043258976e+00
1.2043148815e+00
1.2043043782e+00
1.2042944651e+00
1.2042851985e+00
1.2042766143e+00
1.2042687338e+00
1.2042615658e+00
1.2042551132e+00
1.2042493766e+00
1.2042443626e+00
1.2042400879e+00
1.2042365897e+00
1.2042339303e+00
1.2042322068e+00
1.2042315539e+00
1.2042321477e+00
1.2042341940e+00
1.2042378921e+00
1.2042246461e+00
1.1976176290e+00
1.1976820995e+00
1.1977734879e+00
1.1979091552e+00
1.1980862693e+00
1.1983011585e+00
1.1985494824e+00
1.1988263676e+00
1.1991265838e+00
1.1994446849e+00
1.1997751877e+00
1.2001127027e+00
1.2004520932e+00
1.2007885760e+00
1.2011178408e+00
1.2014361067e+00
1.2017401925e+00
1.2020275248e+00
1.2022961588e+00
1.2025447439e+00
1.2027725034e+00
1.2029791696e+00
1.2031649367e+00
1.2033303797e+00
1.2034763958e+00
1.2036041220e+00
1.2037148774e+00
1.2038100902e+00
1.2038912508e+00
1.2039598548e+00
1.2040173708e+00
1.2040652015e+00
1.2041046677e+00
1.2041369852e+00
1.2041632625e+00
1.2041844914e+00
1.2042015539e+00
1.2042152219e+00
1.2042261697e+00
1.2042349788e+00
1.2042421525e+00
1.2042481216e+00
1.2042532585e+00
1.2042578816e+00
1.2042622666e+00
1.2042666483e+00
1.2042712276e+00
1.2042761700e+00
1.2042816098e+00
1.2042876451e+00
1.2042943396e+00
1.2043017173e+00
1.2043097633e+00
1.2043184197e+00
1.2043275891e+00
1.2043371335e+00
1.2043468812e+00
1.2043566304e+00
1.2043661598e+00
1.2043752361e+00
1.2043836274e+00
1.2043911115e+00
1.2043974893e+00
1.2044025924e+00
1.2044062922e+00
1.2044085043e+00
1.2044091920e+00
1.2044083658e+00
1.2044060812e+00
1.2044024333e+00
1.2043975510e+00
1.2043915887e+00
1.2043847181e+00
1.2043771201e+00
1.2043689769e+00
1.2043604654e+00
1.2043517515e+00
1.2043429862e+00
1.2043343025e+00
1.2043258141e+00
1.2043176147e+00
1.2043097793e+00
1.2043023644e+00
1.2042954111e+00
1.2042889459e+00
1.2042829848e+00
1.2042775340e+00
1.2042725950e+00
1.2042681652e+00
1.2042642434e+00
1.2042608309e+00
1.2042579371e+00
1.2042555804e+00
1.2042537930e+00
1.2042526197e+00
1.2042521187e+00
1.2042523523e+00
1.2042533715e+00
1.2042551751e+00
1.2042380299e+00
1.1977078686e+00
1.1977734879e+00
1.1978642946e+00
1.1979985162e+00
1.1981734298e+00
1.1983854830e+00
1.1986304267e+00
1.1989034925e+00
1.1991995287e+00
1.1995131869e+00
1.1998390553e+00
1.2001718350e+00
1.2005064520e+00
1.2008382026e+00
1.2011628266e+00
1.2014766074e+00
1.2017763984e+00
1.2020596726e+00
1.2023245036e+00
1.2025695689e+00
1.2027940952e+00
1.2029978266e+00
1.2031809482e+00
1.2033440342e+00
1.2034879637e+00
1.2036138640e+00
1.2037230308e+00
1.2038168778e+00
1.2038968706e+00
1.2039644884e+00
1.2040211759e+00
1.2040683207e+00
1.2041072222e+00
1.2041390837e+00
1.2041649965e+00
1.2041859431e+00
1.2042027928e+00
1.2042163118e+00
1.2042271662e+00
1.2042359353e+00
1.2042431173e+00
1.2042491439e+00
1.2042543845e+00
1.2042591595e+00
1.2042637424e+00
1.2042683684e+00
1.2042732346e+00
1.2042785040e+00
1.2042843026e+00
1.2042907210e+00
1.2042978090e+00
1.2043055772e+00
1.2043139916e+00
1.2043229767e+00
1.2043324134e+00
1.2043421453e+00
1.2043519810e+00
1.2043617046e+00
1.2043710827e+00
1.2043798775e+00
1.2043878564e+00
1.2043948055e+00
1.2044005379e+00
1.2044049055e+00
1.2044078028e+00
1.2044091736e+00
1.2044090097e+00
1.2044073510e+00
1.2044042803e+00
1.2043999170e+00
1.2043944097e+00
1.2043879274e+00
1.2043806508e+00
1.2043727639e+00
1.2043644471e+00
1.2043558704e+00
1.2043471899e+00
1.2043385430e+00
1.2043300484e+00
1.2043218042e+00
1.2043138893e+00
1.2043063640e+00
1.2042992728e+00
1.2042926451e+00
1.2042864995e+00
1.2042808445e+00
1.2042756827e+00
1.2042710113e+00
1.2042668268e+00
1.2042631251e+00
1.2042599062e+00
1.2042571738e+00
1.2042549390e+00
1.2042532185e+00
1.2042520357e+00
1.2042514137e+00
1.2042513679e+00
1.2042518855e+00
1.2042528936e+00
1.2042335398e+00
1.1978433478e+00
1.1979091552e+00
1.1979985162e+00
1.1981302653e+00
1.1983017584e+00
1.1985095292e+00
1.1987494502e+00
1.1990168566e+00
1.1993067299e+00
1.1996138282e+00
1.1999328726e+00
1.2002586649e+00
1.2005862539e+00
1.2009110224e+00
1.2012288141e+00
1.2015359785e+00
1.2018294482e+00
1.2021067382e+00
1.2023659743e+00
1.2026058523e+00
1.2028256255e+00
1.2030250352e+00
1.2032042715e+00
1.2033638898e+00
1.2035047584e+00
1.2036279749e+00
1.2037348146e+00
1.2038266564e+00
1.2039049406e+00
1.2039711113e+00
1.2040265877e+00
1.2040727250e+00
1.2041107997e+00
1.2041419877e+00
1.2041673618e+00
1.2041878829e+00
1.2042044071e+00
1.2042176848e+00
1.2042283740e+00
1.2042370437e+00
1.2042441883e+00
1.2042502330e+00
1.2042555468e+00
1.2042604458e+00
1.2042652038e+00
1.2042700523e+00
1.2042751868e+00
1.2042807642e+00
1.2042869053e+00
1.2042936898e+00
1.2043011574e+00
1.2043093022e+00
1.2043180752e+00
1.2043273804e+00
1.2043370807e+00
1.2043469988e+00
1.2043569269e+00
1.2043666326e+00
1.2043758730e+00
1.2043844033e+00
1.2043919919e+00
1.2043984304e+00
1.2044035455e+00
1.2044072064e+00
1.2044093315e+00
1.2044098899e+00
1.2044089023e+00
1.2044064361e+00
1.2044026010e+00
1.2043975398e+00
1.2043914205e+00
1.2043844264e+00
1.2043767470e+00
1.2043685701e+00
1.2043600739e+00
1.2043514230e+00
1.2043427630e+00
1.2043342198e+00
1.2043258972e+00
1.2043178793e+00
1.2043102299e+00
1.2043029962e+00
1.2042962096e+00
1.2042898898e+00
1.2042840458e+00
1.2042786801e+00
1.2042737891e+00
1.2042693672e+00
1.2042654069e+00
1.2042619025e+00
1.2042588491e+00
1.2042562465e+00
1.2042540966e+00
1.2042524056e+00
1.2042511788e+00
1.2042504183e+00
1.2042501123e+00
1.2042502240e+00
1.2042506684e+00
1.2042296198e+00
1.1980209789e+00
1.1980862693e+00
1.1981734298e+00
1.1983017584e+00
1.1984686638e+00
1.1986707919e+00
1.1989041250e+00
1.1991641514e+00
1.1994459842e+00
1.1997445495e+00
1.2000547033e+00
1.2003714120e+00
1.2006898484e+00
1.2010055417e+00
1.2013144376e+00
1.2016130033e+00
1.2018982441e+00
1.2021677586e+00
1.2024197136e+00
1.2026528538e+00
1.2028664434e+00
1.2030602420e+00
1.2032344261e+00
1.2033895447e+00
1.2035264349e+00
1.2036461715e+00
1.2037499880e+00
1.2038392315e+00
1.2039152970e+00
1.2039795938e+00
1.2040334976e+00
1.2040783302e+00
1.2041153299e+00
1.2041456440e+00
1.2041703137e+00
1.2041902781e+00
1.2042063688e+00
1.2042193211e+00
1.2042297755e+00
1.2042382919e+00
1.2042453536e+00
1.2042513812e+00
1.2042567366e+00
1.2042617346e+00
1.2042666438e+00
1.2042716946e+00
1.2042770771e+00
1.2042829450e+00
1.2042894106e+00
1.2042965461e+00
1.2043043779e+00
1.2043128879e+00
1.2043220086e+00
1.2043316279e+00
1.2043415879e+00
1.2043516940e+00
1.2043617195e+00
1.2043714187e+00
1.2043805361e+00
1.2043888221e+00
1.2043960438e+00
1.2044019991e+00
1.2044065259e+00
1.2044095110e+00
1.2044108941e+00
1.2044106700e+00
1.2044088858e+00
1.2044056365e+00
1.2044010571e+00
1.2043953138e+00
1.2043885934e+00
1.2043810934e+00
1.2043730125e+00
1.2043645418e+00
1.2043558589e+00
1.2043471223e+00
1.2043384692e+00
1.2043300130e+00
1.2043218450e+00
1.2043140345e+00
1.2043066319e+00
1.2042996705e+00
1.2042931704e+00
1.2042871402e+00
1.2042815808e+00
1.2042764870e+00
1.2042718505e+00
1.2042676605e+00
1.2042639068e+00
1.2042605794e+00
1.2042576708e+00
1.2042551746e+00
1.2042530876e+00
1.2042514055e+00
1.2042501238e+00
1.2042492305e+00
1.2042487027e+00
1.2042484955e+00
1.2042485348e+00
1.2042261028e+00
1.1982369190e+00
1.1983011585e+00
1.1983854830e+00
1.1985095292e+00
1.1986707919e+00
1.1988660158e+00
1.1990913388e+00
1.1993423928e+00
1.1996144821e+00
1.1999026941e+00
1.2002020851e+00
1.2005077801e+00
1.2008151400e+00
1.2011198331e+00
1.2014179650e+00
1.2017061101e+00
1.2019813953e+00
1.2022414888e+00
1.2024846363e+00
1.2027096145e+00
1.2029157263e+00
1.2031027297e+00
1.2032708061e+00
1.2034204770e+00
1.2035525595e+00
1.2036680842e+00
1.2037682492e+00
1.2038543488e+00
1.2039277358e+00
1.2039897656e+00
1.2040417713e+00
1.2040850251e+00
1.2041207269e+00
1.2041499815e+00
1.2041737990e+00
1.2041930842e+00
1.2042086455e+00
1.2042211929e+00
1.2042313512e+00
1.2042396627e+00
1.2042466014e+00
1.2042525767e+00
1.2042579461e+00
1.2042630170e+00
1.2042680560e+00
1.2042732877e+00
1.2042789000e+00
1.2042850393e+00
1.2042918131e+00
1.2042992828e+00
1.2043074656e+00
1.2043163276e+00
1.2043257877e+00
1.2043357143e+00
1.2043459330e+00
1.2043562291e+00
1.2043663603e+00
1.2043760648e+00
1.2043850773e+00
1.2043931405e+00
1.2044000216e+00
1.2044055225e+00
1.2044094922e+00
1.2044118331e+00
1.2044125060e+00
1.2044115290e+00
1.2044089756e+00
1.2044049666e+00
1.2043996622e+00
1.2043932511e+00
1.2043859386e+00
1.2043779367e+00
1.2043694530e+00
1.2043606833e+00
1.2043518040e+00
1.2043429692e+00
1.2043343071e+00
1.2043259209e+00
1.2043178886e+00
1.2043102666e+00
1.2043030912e+00
1.2042963835e+00
1.2042901511e+00
1.2042843933e+00
1.2042791013e+00
1.2042742637e+00
1.2042698655e+00
1.2042658924e+00
1.2042623293e+00
1.2042591637e+00
1.2042563836e+00
1.2042539795e+00
1.2042519419e+00
1.2042502616e+00
1.2042489261e+00
1.2042479178e+00
1.2042472082e+00
1.2042467554e+00
1.2042464966e+00
1.2042228833e+00
1.1984866935e+00
1.1985494824e+00
1.1986304267e+00
1.1987494502e+00
1.1989041250e+00
1.1990913388e+00
1.1993073715e+00
1.1995480547e+00
1.1998088699e+00
1.2000851304e+00
1.2003720794e+00
1.2006650666e+00
1.2009596272e+00
1.2012516309e+00
1.2015373274e+00
1.2018134535e+00
1.2020772393e+00
1.2023264681e+00
1.2025594445e+00
1.2027750116e+00
1.2029724894e+00
1.2031516592e+00
1.2033126849e+00
1.2034560774e+00
1.2035826114e+00
1.2036932834e+00
1.2037892350e+00
1.2038717138e+00
1.2039420106e+00
1.2040014304e+00
1.2040512462e+00
1.2040926826e+00
1.2041268861e+00
1.2041549205e+00
1.2041777516e+00
1.2041962522e+00
1.2042111964e+00
1.2042232709e+00
1.2042330758e+00
1.2042411383e+00
1.2042479157e+00
1.2042538088e+00
1.2042591645e+00
1.2042642858e+00
1.2042694322e+00
1.2042748259e+00
1.2042806480e+00
1.2042870417e+00
1.2042941057e+00
1.2043018948e+00
1.2043104134e+00
1.2043196167e+00
1.2043294065e+00
1.2043396364e+00
1.2043501121e+00
1.2043606032e+00
1.2043708486e+00
1.2043805736e+00
1.2043895000e+00
1.2043973652e+00
1.2044039332e+00
1.2044090109e+00
1.2044124559e+00
1.2044141861e+00
1.2044141810e+00
1.2044124818e+00
1.2044091863e+00
1.2044044408e+00
1.2043984298e+00
1.2043913638e+00
1.2043834670e+00
1.2043749653e+00
1.2043660763e+00
1.2043569998e+00
1.2043479131e+00
1.2043389653e+00
1.2043302777e+00
1.2043219427e+00
1.2043140269e+00
1.2043065732e+00
1.2042996057e+00
1.2042931323e+00
1.2042871499e+00
1.2042816467e+00
1.2042766065e+00
1.2042720093e+00
1.2042678356e+00
1.2042640652e+00
1.2042606803e+00
1.2042576638e+00
1.2042550016e+00
1.2042526799e+00
1.2042506864e+00
1.2042490073e+00
1.2042476271e+00
1.2042465246e+00
1.2042456721e+00
1.2042450310e+00
1.2042445518e+00
1.2042199012e+00
1.1987653419e+00
1.1988263676e+00
1.1989034925e+00
1.1990168566e+00
1.1991641514e+00
1.1993423928e+00
1.1995480547e+00
1.1997771495e+00
1.2000253973e+00
1.2002883175e+00
1.2005614055e+00
1.2008402154e+00
1.2011205210e+00
1.2013983717e+00
1.2016702206e+00
1.2019329442e+00
1.2021839266e+00
1.2024210421e+00
1.2026426954e+00
1.2028477716e+00
1.2030356391e+00
1.2032060782e+00
1.2033592575e+00
1.2034956536e+00
1.2036160143e+00
1.2037212799e+00
1.2038125450e+00
1.2038909903e+00
1.2039578509e+00
1.2040143634e+00
1.2040617449e+00
1.2041011564e+00
1.2041336942e+00
1.2041603678e+00
1.2041821015e+00
1.2041997245e+00
1.2042139792e+00
1.2042255198e+00
1.2042349244e+00
1.2042426972e+00
1.2042492817e+00
1.2042550637e+00
1.2042603824e+00
1.2042655313e+00
1.2042707659e+00
1.2042763013e+00
1.2042823157e+00
1.2042889450e+00
1.2042962832e+00
1.2043043751e+00
1.2043132166e+00
1.2043227488e+00
1.2043328611e+00
1.2043433888e+00
1.2043541229e+00
1.2043648133e+00
1.2043751845e+00
1.2043849453e+00
1.2043938079e+00
1.2044015005e+00
1.2044077860e+00
1.2044124728e+00
1.2044154280e+00
1.2044165820e+00
1.2044159326e+00
1.2044135422e+00
1.2044095323e+00
1.2044040733e+00
1.2043973734e+00
1.2043896648e+00
1.2043811899e+00
1.2043721893e+00
1.2043628903e+00
1.2043534984e+00
1.2043441910e+00
1.2043351146e+00
1.2043263831e+00
1.2043180799e+00
1.2043102599e+00
1.2043029545e+00
1.2042961744e+00
1.2042899164e+00
1.2042841655e+00
1.2042789005e+00
1.2042740959e+00
1.2042697254e+00
1.2042657625e+00
1.2042621834e+00
1.2042589654e+00
1.2042560893e+00
1.2042535371e+00
1.2042512934e+00
1.2042493424e+00
1.2042476693e+00
1.2042462557e+00
1.2042450814e+00
1.2042441192e+00
1.2042433372e+00
1.2042426947e+00
1.2042171215e+00
1.1990675520e+00
1.1991265838e+00
1.1991995287e+00
1.1993067299e+00
1.1994459842e+00
1.1996144821e+00
1.1998088699e+00
1.2000253973e+00
1.2002599983e+00
1.2005084604e+00
1.2007665053e+00
1.2010299551e+00
1.2012947948e+00
1.2015573148e+00
1.2018141433e+00
1.2020623509e+00
1.2022994478e+00
1.2025234454e+00
1.2027328207e+00
1.2029265376e+00
1.2031039860e+00
1.2032649730e+00
1.2034096470e+00
1.2035384703e+00
1.2036521402e+00
1.2037515550e+00
1.2038377415e+00
1.2039118229e+00
1.2039749603e+00
1.2040283282e+00
1.2040730719e+00
1.2041102937e+00
1.2041410259e+00
1.2041662276e+00
1.2041867701e+00
1.2042034423e+00
1.2042169456e+00
1.2042279047e+00
1.2042368676e+00
1.2042443188e+00
1.2042506814e+00
1.2042563293e+00
1.2042615884e+00
1.2042667459e+00
1.2042720486e+00
1.2042777083e+00
1.2042838960e+00
1.2042907443e+00
1.2042983389e+00
1.2043067188e+00
1.2043158685e+00
1.2043257194e+00
1.2043361451e+00
1.2043469681e+00
1.2043579605e+00
1.2043688576e+00
1.2043793658e+00
1.2043891810e+00
1.2043980021e+00
1.2044055508e+00
1.2044115851e+00
1.2044159164e+00
1.2044184176e+00
1.2044190319e+00
1.2044177730e+00
1.2044147236e+00
1.2044100273e+00
1.2044038780e+00
1.2043965068e+00
1.2043881669e+00
1.2043791194e+00
1.2043696195e+00
1.2043599049e+00
1.2043501868e+00
1.2043406447e+00
1.2043314220e+00
1.2043226273e+00
1.2043143348e+00
1.2043065897e+00
1.2042994110e+00
1.2042927983e+00
1.2042867360e+00
1.2042811987e+00
1.2042761550e+00
1.2042715713e+00
1.2042674135e+00
1.2042636501e+00
1.2042602513e+00
1.2042571920e+00
1.2042544487e+00
1.2042520022e+00
1.2042498339e+00
1.2042479278e+00
1.2042462667e+00
1.2042448334e+00
1.2042436071e+00
1.2042425651e+00
1.2042416794e+00
1.2042409190e+00
1.2042145166e+00
1.1993878241e+00
1.1994446849e+00
1.1995131869e+00
1.1996138282e+00
1.1997445495e+00
1.1999026941e+00
1.2000851304e+00
1.2002883175e+00
1.2005084604e+00
1.2007415841e+00
1.2009836972e+00
1.2012308572e+00
1.2014793209e+00
1.2017255862e+00
1.2019665127e+00
1.2021993324e+00
1.2024217308e+00
1.2026318250e+00
1.2028282049e+00
1.2030098840e+00
1.2031763062e+00
1.2033272782e+00
1.2034629526e+00
1.2035837531e+00
1.2036903448e+00
1.2037835621e+00
1.2038643770e+00
1.2039338365e+00
1.2039930367e+00
1.2040430743e+00
1.2040850291e+00
1.2041199316e+00
1.2041487551e+00
1.2041723968e+00
1.2041916793e+00
1.2042073419e+00
1.2042200487e+00
1.2042303868e+00
1.2042388779e+00
1.2042459798e+00
1.2042520988e+00
1.2042575910e+00
1.2042627727e+00
1.2042679198e+00
1.2042732741e+00
1.2042790394e+00
1.2042853839e+00
1.2042924328e+00
1.2043002681e+00
1.2043089194e+00
1.2043183645e+00
1.2043285219e+00
1.2043392546e+00
1.2043503683e+00
1.2043616218e+00
1.2043727319e+00
1.2043833911e+00
1.2043932791e+00
1.2044020842e+00
1.2044095181e+00
1.2044153357e+00
1.2044193476e+00
1.2044214332e+00
1.2044215454e+00
1.2044197134e+00
1.2044160382e+00
1.2044106844e+00
1.2044038684e+00
1.2043958433e+00
1.2043868835e+00
1.2043772681e+00
1.2043672676e+00
1.2043571303e+00
1.2043470746e+00
1.2043372818e+00
1.2043278944e+00
1.2043190155e+00
1.2043107123e+00
1.2043030195e+00
1.2042959460e+00
1.2042894794e+00
1.2042835933e+00
1.2042782512e+00
1.2042734127e+00
1.2042690349e+00
1.2042650774e+00
1.2042615018e+00
1.2042582748e+00
1.2042553662e+00
1.2042527511e+00
1.2042504068e+00
1.2042483145e+00
1.2042464561e+00
1.2042448152e+00
1.2042433741e+00
1.2042421151e+00
1.2042410172e+00
1.2042400589e+00
1.2042392150e+00
1.2042120616e+00
1.1997206141e+00
1.1997751877e+00
1.1998390553e+00
1.1999328726e+00
1.2000547033e+00
1.2002020851e+00
1.2003720794e+00
1.2005614055e+00
1.2007665053e+00
1.2009836972e+00
1.2012092398e+00
1.2014394836e+00
1.2016709190e+00
1.2019003071e+00
1.2021247015e+00
1.2023415461e+00
1.2025486662e+00
1.2027443281e+00
1.2029272023e+00
1.2030963875e+00
1.2032513520e+00
1.2033919309e+00
1.2035182550e+00
1.2036307312e+00
1.2037299699e+00
1.2038167580e+00
1.2038919933e+00
1.2039566591e+00
1.2040117701e+00
1.2040583542e+00
1.2040974126e+00
1.2041299103e+00
1.2041567509e+00
1.2041787751e+00
1.2041967475e+00
1.2042113624e+00
1.2042232386e+00
1.2042329300e+00
1.2042409251e+00
1.2042476593e+00
1.2042535157e+00
1.2042588368e+00
1.2042639240e+00
1.2042690457e+00
1.2042744342e+00
1.2042802896e+00
1.2042867729e+00
1.2042940064e+00
1.2043020646e+00
1.2043109727e+00
1.2043206983e+00
1.2043311520e+00
1.2043421830e+00
1.2043535855e+00
1.2043651011e+00
1.2043764333e+00
1.2043872568e+00
1.2043972387e+00
1.2044060533e+00
1.2044134043e+00
1.2044190401e+00
1.2044227715e+00
1.2044244810e+00
1.2044241311e+00
1.2044217638e+00
1.2044174972e+00
1.2044115159e+00
1.2044040574e+00
1.2043953965e+00
1.2043858278e+00
1.2043756492e+00
1.2043651459e+00
1.2043545784e+00
1.2043441721e+00
1.2043341121e+00
1.2043245399e+00
1.2043155553e+00
1.2043072181e+00
1.2042995549e+00
1.2042925636e+00
1.2042862218e+00
1.2042804915e+00
1.2042753267e+00
1.2042706765e+00
1.2042664907e+00
1.2042627206e+00
1.2042593231e+00
1.2042562590e+00
1.2042534955e+00
1.2042510039e+00
1.2042487607e+00
1.2042467449e+00
1.2042449389e+00
1.2042433254e+00
1.2042418889e+00
1.2042406125e+00
1.2042394798e+00
1.2042384726e+00
1.2042375731e+00
1.2042097308e+00
1.2000604940e+00
1.2001127027e+00
1.2001718350e+00
1.2002586649e+00
1.2003714120e+00
1.2005077801e+00
1.2006650666e+00
1.2008402154e+00
1.2010299551e+00
1.2012308572e+00
1.2014394836e+00
1.2016524356e+00
1.2018664902e+00
1.2020786299e+00
1.2022861524e+00
1.2024866735e+00
1.2026782032e+00
1.2028591205e+00
1.2030282148e+00
1.2031846375e+00
1.2033279134e+00
1.2034578773e+00
1.2035746640e+00
1.2036786394e+00
1.2037703791e+00
1.2038506025e+00
1.2039201487e+00
1.2039799201e+00
1.2040308625e+00
1.2040739208e+00
1.2041100271e+00
1.2041400696e+00
1.2041648893e+00
1.2041852612e+00
1.2042018980e+00
1.2042154411e+00
1.2042264693e+00
1.2042354965e+00
1.2042429826e+00
1.2042493345e+00
1.2042549169e+00
1.2042600530e+00
1.2042650335e+00
1.2042701148e+00
1.2042755237e+00
1.2042814522e+00
1.2042880588e+00
1.2042954591e+00
1.2043037246e+00
1.2043128727e+00
1.2043228659e+00
1.2043336036e+00
1.2043449263e+00
1.2043566134e+00
1.2043683947e+00
1.2043799563e+00
1.2043909598e+00
1.2044010561e+00
1.2044099084e+00
1.2044172088e+00
1.2044227006e+00
1.2044261912e+00
1.2044275667e+00
1.2044267958e+00
1.2044239328e+00
1.2044191110e+00
1.2044125334e+00
1.2044044576e+00
1.2043951793e+00
1.2043850133e+00
1.2043742757e+00
1.2043632676e+00