# vtk DataFile Version 2.0
Blank
ASCII
DATASET STRUCTURED_GRID
DIMENSIONS 101 101 2
POINTS 20402 float
0.0000000000e+00 0.0000000000e+00 0.0000000000e+00
1.0000000000e-02 0.0000000000e+00 0.0000000000e+00
2.0000000000e-02 0.0000000000e+00 0.0000000000e+00
3.0000000000e-02 0.0000000000e+00 0.0000000000e+00
4.0000000000e-02 0.0000000000e+00 0.0000000000e+00
5.0000000000e-02 0.0000000000e+00 0.0000000000e+00
6.0000000000e-02 0.0000000000e+00 0.0000000000e+00
7.0000000000e-02 0.0000000000e+00 0.0000000000e+00
8.0000000000e-02 0.0000000000e+00 0.0000000000e+00
9.0000000000e-02 0.0000000000e+00 0.0000000000e+00
1.0000000000e-01 0.0000000000e+00 0.0000000000e+00
1.1000000000e-01 0.0000000000e+00 0.0000000000e+00
1.2000000000e-01 0.0000000000e+00 0.0000000000e+00
1.3000000000e-01 0.0000000000e+00 0.0000000000e+00
1.4000000000e-01 0.0000000000e+00 0.0000000000e+00
1.5000000000e-01 0.0000000000e+00 0.0000000000e+00
1.6000000000e-01 0.0000000000e+00 0.0000000000e+00
1.7000000000e-01 0.0000000000e+00 0.0000000000e+00
1.8000000000e-01 0.0000000000e+00 0.0000000000e+00
1.9000000000e-01 0.0000000000e+00 0.0000000000e+00
2.0000000000e-01 0.0000000000e+00 0.0000000000e+00
2.1000000000e-01 0.0000000000e+00 0.0000000000e+00
2.2000000000e-01 0.0000000000e+00 0.0000000000e+00
2.3000000000e-01 0.0000000000e+00 0.0000000000e+00
2.4000000000e-01 0.0000000000e+00 0.0000000000e+00
2.5000000000e-01 0.0000000000e+00 0.0000000000e+00
2.6000000000e-01 0.0000000000e+00 0.0000000000e+00
2.7000000000e-01 0.0000000000e+00 0.0000000000e+00
2.8000000000e-01 0.0000000000e+00 0.0000000000e+00
2.9000000000e-01 0.0000000000e+00 0.0000000000e+00
3.0000000000e-01 0.0000000000e+00 0.0000000000e+00
3.1000000000e-01 0.0000000000e+00 0.0000000000e+00
3.2000000000e-01 0.0000000000e+00 0.0000000000e+00
3.3000000000e-01 0.0000000000e+00 0.0000000000e+00
3.4000000000e-01 0.0000000000e+00 0.0000000000e+00
3.5000000000e-01 0.0000000000e+00 0.0000000000e+00
3.6000000000e-01 0.0000000000e+00 0.0000000000e+00
3.7000000000e-01 0.0000000000e+00 0.0000000000e+00
3.8000000000e-01 0.0000000000e+00 0.0000000000e+00
3.9000000000e-01 0.0000000000e+00 0.0000000000e+00
4.0000000000e-01 0.0000000000e+00 0.0000000000e+00
4.1000000000e-01 0.0000000000e+00 0.0000000000e+00
4.2000000000e-01 0.0000000000e+00 0.0000000000e+00
4.3000000000e-01 0.0000000000e+00 0.0000000000e+00
4.4000000000e-01 0.0000000000e+00 0.0000000000e+00
4.5000000000e-01 0.0000000000e+00 0.0000000000e+00
4.6000000000e-01 0.0000000000e+00 0.0000000000e+00
4.7000000000e-01 0.0000000000e+00 0.0000000000e+00
4.8000000000e-01 0.0000000000e+00 0.0000000000e+00
4.9000000000e-01 0.0000000000e+00 0.0000000000e+00
5.0000000000e-01 0.0000000000e+00 0.0000000000e+00
5.1000000000e-01 0.0000000000e+00 0.0000000000e+00
5.2000000000e-01 0.0000000000e+00 0.0000000000e+00
5.3000000000e-01 0.0000000000e+00 0.0000000000e+00
5.4000000000e-01 0.0000000000e+00 0.0000000000e+00
5.5000000000e-01 0.0000000000e+00 0.0000000000e+00
5.6000000000e-01 0.0000000000e+00 0.0000000000e+00
5.7000000000e-01 0.0000000000e+00 0.0000000000e+00
5.8000000000e-01 0.0000000000e+00 0.0000000000e+00
5.9000000000e-01 0.0000000000e+00 0.0000000000e+00
6.0000000000e-01 0.0000000000e+00 0.0000000000e+00
6.1000000000e-01 0.0000000000e+00 0.0000000000e+00
6.2000000000e-01 0.0000000000e+00 0.0000000000e+00
6.3000000000e-01 0.0000000000e+00 0.0000000000e+00
6.4000000000e-01 0.0000000000e+00 0.0000000000e+00
6.5000000000e-01 0.0000000000e+00 0.0000000000e+00
6.6000000000e-01 0.0000000000e+00 0.0000000000e+00
6.7000000000e-01 0.0000000000e+00 0.0000000000e+00
6.8000000000e-01 0.0000000000e+00 0.0000000000e+00
6.9000000000e-01 0.0000000000e+00 0.0000000000e+00
7.0000000000e-01 0.0000000000e+00 0.0000000000e+00
7.1000000000e-01 0.0000000000e+00 0.0000000000e+00
7.2000000000e-01 0.0000000000e+00 0.0000000000e+00
7.3000000000e-01 0.0000000000e+00 0.0000000000e+00
7.4000000000e-01 0.0000000000e+00 0.0000000000e+00
7.5000000000e-01 0.0000000000e+00 0.0000000000e+00
7.6000000000e-01 0.0000000000e+00 0.0000000000e+00
7.7000000000e-01 0.0000000000e+00 0.0000000000e+00
7.8000000000e-01 0.0000000000e+00 0.0000000000e+00
7.9000000000e-01 0.0000000000e+00 0.0000000000e+00
8.0000000000e-01 0.0000000000e+00 0.0000000000e+00
8.1000000000e-01 0.0000000000e+00 0.0000000000e+00
8.2000000000e-01 0.0000000000e+00 0.0000000000e+00
8.3000000000e-01 0.0000000000e+00 0.0000000000e+00
8.4000000000e-01 0.0000000000e+00 0.0000000000e+00
8.5000000000e-01 0.0000000000e+00 0.0000000000e+00
8.6000000000e-01 0.0000000000e+00 0.0000000000e+00
8.7000000000e-01 0.0000000000e+00 0.0000000000e+00
8.8000000000e-01 0.0000000000e+00 0.0000000000e+00
8.9000000000e-01 0.0000000000e+00 0.0000000000e+00
9.0000000000e-01 0.0000000000e+00 0.0000000000e+00
9.1000000000e-01 0.0000000000e+00 0.0000000000e+00
9.2000000000e-01 0.0000000000e+00 0.0000000000e+00
9.3000000000e-01 0.0000000000e+00 0.0000000000e+00
9.4000000000e-01 0.0000000000e+00 0.0000000000e+00
9.5000000000e-01 0.0000000000e+00 0.0000000000e+00
9.6000000000e-01 0.0000000000e+00 0.0000000000e+00
9.7000000000e-01 0.0000000000e+00 0.0000000000e+00
9.8000000000e-01 0.0000000000e+00 0.0000000000e+00
9.9000000000e-01 0.0000000000e+00 0.0000000000e+00
1.0000000000e+00 0.0000000000e+00 0.0000000000e+00
0.0000000000e+00 1.0000000000e-02 0.0000000000e+00
1.0000000000e-02 1.0000000000e-02 0.0000000000e+00
2.0000000000e-02 1.0000000000e-02 0.0000000000e+00
3.0000000000e-02 1.0000000000e-02 0.0000000000e+00
4.0000000000e-02 1.0000000000e-02 0.0000000000e+00
5.0000000000e-02 1.0000000000e-02 0.0000000000e+00
6.0000000000e-02 1.0000000000e-02 0.0000000000e+00
7.0000000000e-02 1.0000000000e-02 0.0000000000e+00
8.0000000000e-02 1.0000000000e-02 0.0000000000e+00
9.0000000000e-02 1.0000000000e-02 0.0000000000e+00
1.0000000000e-01 1.0000000000e-02 0.0000000000e+00
1.1000000000e-01 1.0000000000e-02 0.0000000000e+00
1.2000000000e-01 1.0000000000e-02 0.0000000000e+00
1.3000000000e-01 1.0000000000e-02 0.0000000000e+00
1.4000000000e-01 1.0000000000e-02 0.0000000000e+00
1.5000000000e-01 1.0000000000e-02 0.0000000000e+00
1.6000000000e-01 1.0000000000e-02 0.0000000000e+00
1.7000000000e-01 1.0000000000e-02 0.0000000000e+00
1.8000000000e-01 1.0000000000e-02 0.0000000000e+00
1.9000000000e-01 1.0000000000e-02 0.0000000000e+00
2.0000000000e-01 1.0000000000e-02 0.0000000000e+00
2.1000000000e-01 1.0000000000e-02 0.0000000000e+00
2.2000000000e-01 1.0000000000e-02 0.0000000000e+00
2.3000000000e-01 1.0000000000e-02 0.0000000000e+00
2.4000000000e-01 1.0000000000e-02 0.0000000000e+00
2.5000000000e-01 1.0000000000e-02 0.0000000000e+00
2.6000000000e-01 1.0000000000e-02 0.0000000000e+00
2.7000000000e-01 1.0000000000e-02 0.0000000000e+00
2.8000000000e-01 1.0000000000e-02 0.0000000000e+00
2.9000000000e-01 1.0000000000e-02 0.0000000000e+00
3.0000000000e-01 1.0000000000e-02 0.0000000000e+00
3.1000000000e-01 1.0000000000e-02 0.0000000000e+00
3.2000000000e-01 1.0000000000e-02 0.0000000000e+00
3.3000000000e-01 1.0000000000e-02 0.0000000000e+00
3.4000000000e-01 1.0000000000e-02 0.0000000000e+00
3.5000000000e-01 1.0000000000e-02 0.0000000000e+00
3.6000000000e-01 1.0000000000e-02 0.0000000000e+00
3.7000000000e-01 1.0000000000e-02 0.0000000000e+00
3.8000000000e-01 1.0000000000e-02 0.0000000000e+00
3.9000000000e-01 1.0000000000e-02 0.0000000000e+00
4.0000000000e-01 1.0000000000e-02 0.0000000000e+00
4.1000000000e-01 1.0000000000e-02 0.0000000000e+00
4.2000000000e-01 1.0000000000e-02 0.0000000000e+00
4.3000000000e-01 1.0000000000e-02 0.0000000000e+00
4.4000000000e-01 1.0000000000e-02 0.0000000000e+00
4.5000000000e-01 1.0000000000e-02 0.0000000000e+00
4.6000000000e-01 1.0000000000e-02 0.0000000000e+00
4.7000000000e-01 1.0000000000e-02 0.0000000000e+00
4.8000000000e-01 1.0000000000e-02 0.0000000000e+00
4.9000000000e-01 1.0000000000e-02 0.0000000000e+00
5.0000000000e-01 1.0000000000e-02 0.0000000000e+00
5.1000000000e-01 1.0000000000e-02 0.0000000000e+00
5.2000000000e-01 1.0000000000e-02 0.0000000000e+00
5.3000000000e-01 1.0000000000e-02 0.0000000000e+00
5.4000000000e-01 1.0000000000e-02 0.0000000000e+00
5.5000000000e-01 1.0000000000e-02 0.0000000000e+00
5.6000000000e-01 1.0000000000e-02 0.0000000000e+00
5.7000000000e-01 1.0000000000e-02 0.0000000000e+00
5.8000000000e-01 1.0000000000e-02 0.0000000000e+00
5.9000000000e-01 1.0000000000e-02 0.0000000000e+00
6.0000000000e-01 1.0000000000e-02 0.0000000000e+00
6.1000000000e-01 1.0000000000e-02 0.0000000000e+00
6.2000000000e-01 1.0000000000e-02 0.0000000000e+00
6.3000000000e-01 1.0000000000e-02 0.0000000000e+00
6.4000000000e-01 1.0000000000e-02 0.0000000000e+00
6.5000000000e-01 1.0000000000e-02 0.0000000000e+00
6.6000000000e-01 1.0000000000e-02 0.0000000000e+00
6.7000000000e-01 1.0000000000e-02 0.0000000000e+00
6.8000000000e-01 1.0000000000e-02 0.0000000000e+00
6.9000000000e-01 1.0000000000e-02 0.0000000000e+00
7.0000000000e-01 1.0000000000e-02 0.0000000000e+00
7.1000000000e-01 1.0000000000e-02 0.0000000000e+00
7.2000000000e-01 1.0000000000e-02 0.0000000000e+00
7.3000000000e-01 1.0000000000e-02 0.0000000000e+00
7.4000000000e-01 1.0000000000e-02 0.0000000000e+00
7.5000000000e-01 1.0000000000e-02 0.0000000000e+00
7.6000000000e-01 1.0000000000e-02 0.0000000000e+00
7.7000000000e-01 1.0000000000e-02 0.0000000000e+00
7.8000000000e-01 1.0000000000e-02 0.0000000000e+00
7.9000000000e-01 1.0000000000e-02 0.0000000000e+00
8.0000000000e-01 1.0000000000e-02 0.0000000000e+00
8.1000000000e-01 1.0000000000e-02 0.0000000000e+00
8.2000000000e-01 1.0000000000e-02 0.0000000000e+00
8.3000000000e-01 1.0000000000e-02 0.0000000000e+00
8.4000000000e-01 1.0000000000e-02 0.0000000000e+00
8.5000000000e-01 1.0000000000e-02 0.0000000000e+00
8.6000000000e-01 1.0000000000e-02 0.0000000000e+00
8.7000000000e-01 1.0000000000e-02 0.0000000000e+00
8.8000000000e-01 1.0000000000e-02 0.0000000000e+00
8.9000000000e-01 1.0000000000e-02 0.0000000000e+00
9.0000000000e-01 1.0000000000e-02 0.0000000000e+00
9.1000000000e-01 1.0000000000e-02 0.0000000000e+00
9.2000000000e-01 1.0000000000e-02 0.0000000000e+00
[...]
CELL_DATA 10000

SCALARS massDensity float
LOOKUP_TABLE default
1.1985538953e+00
1.1985985014e+00
1.1986644875e+00
1.1987638126e+00
1.1988945164e+00
1.1990541532e+00
1.1992398619e+00
1.1994484447e+00
1.1996764416e+00
1.1999202229e+00
1.2001760717e+00
1.2004402809e+00
1.2007092308e+00
1.2009794752e+00
1.2012478031e+00
1.2015113033e+00
1.2017674026e+00
1.2020139030e+00
1.2022489935e+00
1.2024712603e+00
1.2026796732e+00
1.2028735727e+00
1.2030526360e+00
1.2032168479e+00
1.2033664542e+00
1.2035019236e+00
1.2036238969e+00
1.2037331473e+00
1.2038305335e+00
1.2039169646e+00
1.2039933615e+00
1.2040606324e+00
1.2041196452e+00
1.2041712143e+00
1.2042160856e+00
1.2042549343e+00
1.2042883600e+00
1.2043168932e+00
1.2043409976e+00
1.2043610818e+00
1.2043775046e+00
1.2043905883e+00
1.2044006242e+00
1.2044078836e+00
1.2044126221e+00
1.2044150866e+00
1.2044155166e+00
1.2044141479e+00
1.2044112110e+00
1.2044069317e+00
1.2044015284e+00
1.2043952107e+00
1.2043881762e+00
1.2043806095e+00
1.2043726787e+00
1.2043645354e+00
1.2043563129e+00
1.2043481263e+00
1.2043400723e+00
1.2043322303e+00
1.2043246631e+00
1.2043174190e+00
1.2043105322e+00
1.2043040257e+00
1.2042979123e+00
1.2042921965e+00
1.2042868759e+00
1.2042819426e+00
1.2042773849e+00
1.2042731877e+00
1.2042693339e+00
1.2042658050e+00
1.2042625817e+00
1.2042596443e+00
1.2042569734e+00
1.2042545496e+00
1.2042523544e+00
1.2042503695e+00
1.2042485778e+00
1.2042469627e+00
1.2042455089e+00
1.2042442018e+00
1.2042430284e+00
1.2042419770e+00
1.2042410380e+00
1.2042402041e+00
1.2042394712e+00
1.2042388388e+00
1.2042383119e+00
1.2042379006e+00
1.2042376234e+00
1.2042375072e+00
1.2042375910e+00
1.2042379282e+00
1.2042385916e+00
1.2042396788e+00
1.2042413199e+00
1.2042436804e+00
1.2042469497e+00
1.2042341163e+00
1.1985985014e+00
1.1986454454e+00
1.1987123337e+00
1.1988118967e+00
1.1989423528e+00
1.1991013761e+00
1.1992861951e+00
1.1994936701e+00
1.1997203924e+00
1.1999627656e+00
1.2002171090e+00
1.2004797377e+00
1.2007470600e+00
1.2010156448e+00
1.2012823023e+00
1.2015441296e+00
1.2017985668e+00
1.2020434168e+00
1.2022768737e+00
1.2024975165e+00
1.2027043116e+00
1.2028965848e+00
1.2030740027e+00
1.2032365297e+00
1.2033843963e+00
1.2035180485e+00
1.2036381114e+00
1.2037453383e+00
1.2038405769e+00
1.2039247246e+00
1.2039987021e+00
1.2040634191e+00
1.2041197579e+00
1.2041685509e+00
1.2042105748e+00
1.2042465390e+00
1.2042770884e+00
1.2043027997e+00
1.2043241905e+00
1.2043417205e+00
1.2043558026e+00
1.2043668061e+00
1.2043750671e+00
1.2043808916e+00
1.2043845636e+00
1.2043863458e+00
1.2043864859e+00
1.2043852148e+00
1.2043827507e+00
1.2043792961e+00
1.2043750405e+00
1.2043701568e+00
1.2043648034e+00
1.2043591216e+00
1.2043532369e+00
1.2043472578e+00
1.2043412771e+00
1.2043353720e+00
1.2043296058e+00
1.2043240278e+00
1.2043186763e+00
1.2043135784e+00
1.2043087528e+00
1.2043042099e+00
1.2042999542e+00
1.2042959850e+00
1.2042922974e+00
1.2042888834e+00
1.2042857329e+00
1.2042828338e+00
1.2042801732e+00
1.2042777374e+00
1.2042755125e+00
1.2042734846e+00
1.2042716398e+00
1.2042699649e+00
1.2042684468e+00
1.2042670733e+00
1.2042658324e+00
1.2042647133e+00
1.2042637054e+00
1.2042627995e+00
1.2042619867e+00
1.2042612600e+00
1.2042606131e+00
1.2042600419e+00
1.2042595440e+00
1.2042591199e+00
1.2042587726e+00
1.2042585090e+00
1.2042583400e+00
1.2042582818e+00
1.2042583554e+00
1.2042585887e+00
1.2042590156e+00
1.2042596758e+00
1.2042606101e+00
1.2042618496e+00
1.2042633836e+00
1.2042472652e+00
1.1986644875e+00
1.1987123337e+00
1.1987789295e+00
1.1988776320e+00
1.1990067330e+00
1.1991639824e+00
1.1993466662e+00
1.1995517079e+00
1.1997757466e+00
1.2000152437e+00
1.2002665623e+00
1.2005260726e+00
1.2007902230e+00
1.2010556333e+00
1.2013191484e+00
1.2015779097e+00
1.2018293846e+00
1.2020714112e+00
1.2023022019e+00
1.2025203605e+00
1.2027248616e+00
1.2029150442e+00
1.2030905734e+00
1.2032514158e+00
1.2033977905e+00
1.2035301363e+00
1.2036490588e+00
1.2037552967e+00
1.2038496730e+00
1.2039330659e+00
1.2040063695e+00
1.2040704737e+00
1.2041262361e+00
1.2041744726e+00
1.2042159408e+00
1.2042513398e+00
1.2042813034e+00
1.2043064062e+00
1.2043271637e+00
1.2043440412e+00
1.2043574569e+00
1.2043677919e+00
1.2043753925e+00
1.2043805791e+00
1.2043836470e+00
1.2043848725e+00
1.2043845124e+00
1.2043828075e+00
1.2043799808e+00
1.2043762393e+00
1.2043717721e+00
1.2043667513e+00
1.2043613304e+00
1.2043556454e+00
1.2043498140e+00
1.2043439371e+00
1.2043380985e+00
1.2043323672e+00
1.2043267977e+00
1.2043214323e+00
1.2043163020e+00
1.2043114283e+00
1.2043068246e+00
1.2043024979e+00
1.2042984493e+00
1.2042946761e+00
1.2042911719e+00
1.2042879279e+00
1.2042849334e+00
1.2042821768e+00
1.2042796452e+00
1.2042773257e+00
1.2042752049e+00
1.2042732697e+00
1.2042715073e+00
1.2042699051e+00
1.2042684511e+00
1.2042671337e+00
1.2042659421e+00
1.2042648661e+00
1.2042638963e+00
1.2042630239e+00
1.2042622414e+00
1.2042615422e+00
1.2042609211e+00
1.2042603741e+00
1.2042598995e+00
1.2042594971e+00
1.2042591697e+00
1.2042589219e+00
1.2042587622e+00
1.2042587013e+00
1.2042587534e+00
1.2042589344e+00
1.2042592615e+00
1.2042597484e+00
1.2042603986e+00
1.2042611899e+00
1.2042620452e+00
1.2042442727e+00
1.1987638126e+00
1.1988118967e+00
1.1988776320e+00
1.1989748151e+00
1.1991017827e+00
1.1992563356e+00
1.1994358308e+00
1.1996372526e+00
1.1998573175e+00
1.2000925500e+00
1.2003393919e+00
1.2005942749e+00
1.2008537232e+00
1.2011144128e+00
1.2013732567e+00
1.2016274430e+00
1.2018744957e+00
1.2021122876e+00
1.2023390733e+00
1.2025534772e+00
1.2027545005e+00
1.2029414889e+00
1.2031141183e+00
1.2032723485e+00
1.2034163959e+00
1.2035466806e+00
1.2036637943e+00
1.2037684487e+00
1.2038614448e+00
1.2039436296e+00
1.2040158717e+00
1.2040790293e+00
1.2041339360e+00
1.2041813798e+00
1.2042220994e+00
1.2042567736e+00
1.2042860251e+00
1.2043104176e+00
1.2043304643e+00
1.2043466288e+00
1.2043593349e+00
1.2043689689e+00
1.2043758880e+00
1.2043804213e+00
1.2043828765e+00
1.2043835391e+00
1.2043826763e+00
1.2043805352e+00
1.2043773449e+00
1.2043733144e+00
1.2043686338e+00
1.2043634722e+00
1.2043579798e+00
1.2043522861e+00
1.2043465021e+00
1.2043407202e+00
1.2043350162e+00
1.2043294503e+00
1.2043240693e+00
1.2043189077e+00
1.2043139901e+00
1.2043093319e+00
1.2043049422e+00
1.2043008236e+00
1.2042969748e+00
1.2042933905e+00
1.2042900631e+00
1.2042869830e+00
1.2042841393e+00
1.2042815200e+00
1.2042791130e+00
1.2042769057e+00
1.2042748854e+00
1.2042730400e+00
1.2042713571e+00
1.2042698253e+00
1.2042684331e+00
1.2042671702e+00
1.2042660262e+00
1.2042649919e+00
1.2042640585e+00
1.2042632183e+00
1.2042624640e+00
1.2042617900e+00
1.2042611912e+00
1.2042606642e+00
1.2042602068e+00
1.2042598188e+00
1.2042595012e+00
1.2042592575e+00
1.2042590923e+00
1.2042590124e+00
1.2042590249e+00
1.2042591373e+00
1.2042593536e+00
1.2042596720e+00
1.2042600766e+00
1.2042605269e+00
1.2042609386e+00
1.2042421053e+00
1.1988945164e+00
1.1989423528e+00
1.1990067330e+00
1.1991017827e+00
1.1992258651e+00
1.1993768431e+00
1.1995521359e+00
1.1997488151e+00
1.1999636732e+00
1.2001933323e+00
1.2004343144e+00
1.2006831502e+00
1.2009364410e+00
1.2011909555e+00
1.2014436747e+00
1.2016918669e+00
1.2019331100e+00
1.2021653398e+00
1.2023868479e+00
1.2025963022e+00
1.2027927227e+00
1.2029754786e+00
1.2031442471e+00
1.2032989930e+00
1.2034399183e+00
1.2035674328e+00
1.2036821016e+00
1.2037846143e+00
1.2038757376e+00
1.2039562896e+00
1.2040271016e+00
1.2040890012e+00
1.2041427865e+00
1.2041892185e+00
1.2042290063e+00
1.2042628089e+00
1.2042912286e+00
1.2043148184e+00
1.2043340810e+00
1.2043494787e+00
1.2043614341e+00
1.2043703390e+00
1.2043765556e+00
1.2043804230e+00
1.2043822564e+00
1.2043823514e+00
1.2043809819e+00
1.2043784025e+00
1.2043748459e+00
1.2043705240e+00
1.2043656261e+00
1.2043603199e+00
1.2043547504e+00
1.2043490421e+00
1.2043432982e+00
1.2043376038e+00
1.2043320259e+00
1.2043266171e+00
1.2043214158e+00
1.2043164494e+00
1.2043117358e+00
1.2043072851e+00
1.2043031012e+00
1.2042991834e+00
1.2042955271e+00
1.2042921252e+00
1.2042889685e+00
1.2042860467e+00
1.2042833485e+00
1.2042808621e+00
1.2042785755e+00
1.2042764766e+00
1.2042745537e+00
1.2042727949e+00
1.2042711891e+00
1.2042697254e+00
1.2042683933e+00
1.2042671829e+00
1.2042660851e+00
1.2042650909e+00
1.2042641926e+00
1.2042633826e+00
1.2042626548e+00
1.2042620033e+00
1.2042614239e+00
1.2042609127e+00
1.2042604678e+00
1.2042600877e+00
1.2042597729e+00
1.2042595243e+00
1.2042593445e+00
1.2042592358e+00
1.2042592008e+00
1.2042592398e+00
1.2042593498e+00
1.2042595200e+00
1.2042597276e+00
1.2042599302e+00
1.2042600575e+00
1.2042405335e+00
1.1990541532e+00
1.1991013761e+00
1.1991639824e+00
1.1992563356e+00
1.1993768431e+00
1.1995234212e+00
1.1996935758e+00
1.1998844598e+00
1.2000929749e+00
1.2003158372e+00
1.2005496868e+00
1.2007911504e+00
1.2010369452e+00
1.2012839289e+00
1.2015291869e+00
1.2017700626e+00
1.2020042202e+00
1.2022296514e+00
1.2024447115e+00
1.2026481030e+00
1.2028388858e+00
1.2030164419e+00
1.2031804653e+00
1.2033309139e+00
1.2034679865e+00
1.2035920697e+00
1.2037037092e+00
1.2038035597e+00
1.2038923583e+00
1.2039708816e+00
1.2040399261e+00
1.2041002775e+00
1.2041526998e+00
1.2041979160e+00
1.2042366070e+00
1.2042694017e+00
1.2042968829e+00
1.2043195843e+00
1.2043379991e+00
1.2043525803e+00
1.2043637500e+00
1.2043718997e+00
1.2043773974e+00
1.2043805866e+00
1.2043817912e+00
1.2043813130e+00
1.2043794338e+00
1.2043764127e+00
1.2043724871e+00
1.2043678698e+00
1.2043627506e+00
1.2043572940e+00
1.2043516416e+00
1.2043459112e+00
1.2043402000e+00
1.2043345845e+00
1.2043291244e+00
1.2043238636e+00
1.2043188332e+00
1.2043140531e+00
1.2043095351e+00
1.2043052836e+00
1.2043012979e+00
1.2042975734e+00
1.2042941029e+00
1.2042908771e+00
1.2042878855e+00
1.2042851168e+00
1.2042825594e+00
1.2042802015e+00
1.2042780314e+00
1.2042760377e+00
1.2042742089e+00
1.2042725342e+00
1.2042710031e+00
1.2042696054e+00
1.2042683314e+00
1.2042671721e+00
1.2042661186e+00
1.2042651632e+00
1.2042642982e+00
1.2042635171e+00
1.2042628136e+00
1.2042621827e+00
1.2042616197e+00
1.2042611213e+00
1.2042606847e+00
1.2042603082e+00
1.2042599906e+00
1.2042597319e+00
1.2042595317e+00
1.2042593900e+00
1.2042593054e+00
1.2042592745e+00
1.2042592894e+00
1.2042593365e+00
1.2042593916e+00
1.2042594183e+00
1.2042593627e+00
1.2042393750e+00
1.1992398619e+00
1.1992861951e+00
1.1993466662e+00
1.1994358308e+00
1.1995521359e+00
1.1996935758e+00
1.1998577353e+00
1.2000418796e+00
1.2002430124e+00
1.2004579806e+00
1.2006835353e+00
1.2009164387e+00
1.2011535165e+00
1.2013917538e+00
1.2016283325e+00
1.2018607061e+00
1.2020866155e+00
1.2023041390e+00
1.2025116849e+00
1.2027080151e+00
1.2028922172e+00
1.2030637056e+00
1.2032221781e+00
1.2033676003e+00
1.2035001540e+00
1.2036202129e+00
1.2037282901e+00
1.2038250124e+00
1.2039110740e+00
1.2039872149e+00
1.2040541846e+00
1.2041127298e+00
1.2041635691e+00
1.2042073896e+00
1.2042448337e+00
1.2042765020e+00
1.2043029485e+00
1.2043246887e+00
1.2043421981e+00
1.2043559220e+00
1.2043662750e+00
1.2043736491e+00
1.2043784126e+00
1.2043809148e+00
1.2043814839e+00
1.2043804288e+00
1.2043780360e+00
1.2043745705e+00
1.2043702718e+00
1.2043653551e+00
1.2043600089e+00
1.2043543960e+00
1.2043486531e+00
1.2043428930e+00
1.2043372055e+00
1.2043316602e+00
1.2043263084e+00
1.2043211865e+00
1.2043163177e+00
1.2043117153e+00
1.2043073842e+00
1.2043033238e+00
1.2042995287e+00
1.2042959906e+00
1.2042926994e+00
1.2042896437e+00
1.2042868117e+00
1.2042841911e+00
1.2042817701e+00
1.2042795368e+00
1.2042774797e+00
1.2042755878e+00
1.2042738505e+00
1.2042722574e+00
1.2042707987e+00
1.2042694651e+00
1.2042682475e+00
1.2042671375e+00
1.2042661272e+00
1.2042652089e+00
1.2042643760e+00
1.2042636220e+00
1.2042629413e+00
1.2042623288e+00
1.2042617803e+00
1.2042612918e+00
1.2042608607e+00
1.2042604843e+00
1.2042601609e+00
1.2042598886e+00
1.2042596660e+00
1.2042594904e+00
1.2042593585e+00
1.2042592642e+00
1.2042591982e+00
1.2042591458e+00
1.2042590856e+00
1.2042589874e+00
1.2042588129e+00
1.2042385003e+00
1.1994484447e+00
1.1994936701e+00
1.1995517079e+00
1.1996372526e+00
1.1997488151e+00
1.1998844598e+00
1.2000418796e+00
1.2002184425e+00
1.2004112885e+00
1.2006173855e+00
1.2008336341e+00
1.2010569206e+00
1.2012842186e+00
1.2015126295e+00
1.2017394683e+00
1.2019622867e+00
1.2021789356e+00
1.2023875668e+00
1.2025866697e+00
1.2027750518e+00
1.2029518516e+00
1.2031165015e+00
1.2032687210e+00
1.2034084687e+00
1.2035359231e+00
1.2036514306e+00
1.2037554815e+00
1.2038486612e+00
1.2039316277e+00
1.2040050716e+00
1.2040697007e+00
1.2041262105e+00
1.2041752779e+00
1.2042175438e+00
1.2042536139e+00
1.2042840515e+00
1.2043093836e+00
1.2043300990e+00
1.2043466573e+00
1.2043594886e+00
1.2043690016e+00
1.2043755829e+00
1.2043796021e+00
1.2043814096e+00
1.2043813390e+00
1.2043797031e+00
1.2043767942e+00
1.2043728803e+00
1.2043682049e+00
1.2043629833e+00
1.2043574042e+00
1.2043516274e+00
1.2043457862e+00
1.2043399872e+00
1.2043343143e+00
1.2043288292e+00
1.2043235761e+00
1.2043185832e+00
1.2043138667e+00
1.2043094327e+00
1.2043052801e+00
1.2043014026e+00
1.2042977906e+00
1.2042944320e+00
1.2042913138e+00
1.2042884225e+00
1.2042857448e+00
1.2042832678e+00
1.2042809790e+00
1.2042788665e+00
1.2042769191e+00
1.2042751263e+00
1.2042734777e+00
1.2042719639e+00
1.2042705757e+00
1.2042693043e+00
1.2042681415e+00
1.2042670794e+00
1.2042661107e+00
1.2042652284e+00
1.2042644261e+00
1.2042636980e+00
1.2042630385e+00
1.2042624430e+00
1.2042619069e+00
1.2042614267e+00
1.2042609989e+00
1.2042606208e+00
1.2042602895e+00
1.2042600026e+00
1.2042597569e+00
1.2042595492e+00
1.2042593741e+00
1.2042592249e+00
1.2042590916e+00
1.2042589606e+00
1.2042588134e+00
1.2042586268e+00
1.2042583728e+00
1.2042378227e+00
1.1996764416e+00
1.1997203924e+00
1.1997757466e+00
1.1998573175e+00
1.1999636732e+00
1.2000929749e+00
1.2002430124e+00
1.2004112885e+00
1.2005950674e+00
1.2007914737e+00
1.2009975437e+00
1.2012103270e+00
1.2014269297e+00
1.2016446075e+00
1.2018607934e+00
1.2020731723e+00
1.2022796895e+00
1.2024786010e+00
1.2026684615e+00
1.2028481503e+00
1.2030168406e+00
1.2031740038e+00
1.2033193655e+00
1.2034528937e+00
1.2035747485e+00
1.2036852615e+00
1.2037848860e+00
1.2038741750e+00
1.2039537375e+00
1.2040242217e+00
1.2040862810e+00
1.2041405653e+00
1.2041876988e+00
1.2042282795e+00
1.2042628676e+00
1.2042919910e+00
1.2043161415e+00
1.2043357835e+00
1.2043513530e+00
1.2043632668e+00
1.2043719212e+00
1.2043776988e+00
1.2043809658e+00
1.2043820749e+00
1.2043813613e+00
1.2043791426e+00
1.2043757145e+00
1.2043713492e+00
1.2043662920e+00
1.2043607600e+00
1.2043549407e+00
1.2043489921e+00
1.2043430430e+00
1.2043371956e+00
1.2043315267e+00
1.2043260915e+00
1.2043209264e+00
1.2043160524e+00
1.2043114781e+00
1.2043072032e+00
1.2043032201e+00
1.2042995176e+00
1.2042960811e+00
1.2042928951e+00
1.2042899437e+00
1.2042872113e+00
1.2042846831e+00
1.2042823451e+00
1.2042801846e+00
1.2042781894e+00
1.2042763487e+00
1.2042746521e+00
1.2042730900e+00
1.2042716533e+00
1.2042703336e+00
1.2042691228e+00
1.2042680133e+00
1.2042669978e+00
1.2042660695e+00
1.2042652219e+00
1.2042644492e+00
1.2042637457e+00
1.2042631063e+00
1.2042625263e+00
1.2042620016e+00
1.2042615281e+00
1.2042611025e+00
1.2042607214e+00
1.2042603817e+00
1.2042600800e+00
1.2042598127e+00
1.2042595754e+00
1.2042593625e+00
1.2042591667e+00
1.2042589787e+00
1.2042587860e+00
1.2042585737e+00
1.2042583235e+00
1.2042580157e+00
1.2042372845e+00
1.1999202229e+00
1.1999627656e+00
1.2000152437e+00
1.2000925500e+00
1.2001933323e+00
1.2003158372e+00
1.2004579806e+00
1.2006173855e+00
1.2007914737e+00
1.2009775106e+00
1.2011727047e+00
1.2013742509e+00
1.2015794259e+00
1.2017856207e+00
1.2019904227e+00
1.2021916312e+00
1.2023873186e+00
1.2025758266e+00
1.2027558039e+00
1.2029261832e+00
1.2030861964e+00
1.2032353367e+00
1.2033733549e+00
1.2035002123e+00
1.2036160657e+00
1.2037212170e+00
1.2038160940e+00
1.2039012038e+00
1.2039771153e+00
1.2040444217e+00
1.2041037293e+00
1.2041556311e+00
1.2042007038e+00
1.2042394927e+00
1.2042725161e+00
1.2043002582e+00
1.2043231784e+00
1.2043417089e+00
1.2043562646e+00
1.2043672423e+00
1.2043750280e+00
1.2043799949e+00
1.2043825071e+00
1.2043829156e+00
1.2043815584e+00
1.2043787551e+00
1.2043748059e+00
1.2043699853e+00
1.2043645415e+00
1.2043586923e+00
1.2043526249e+00
1.2043464949e+00
1.2043404281e+00
1.2043345210e+00
1.2043288450e+00
1.2043234481e+00
1.2043183599e+00
1.2043135936e+00
1.2043091513e+00
1.2043050254e+00
1.2043012030e+00
1.2042976669e+00
1.2042943984e+00
1.2042913782e+00
1.2042885875e+00
1.2042860085e+00
1.2042836249e+00
1.2042814217e+00
1.2042793857e+00
1.2042775046e+00
1.2042757675e+00
1.2042741646e+00
1.2042726866e+00
1.2042713252e+00
1.2042700723e+00
1.2042689206e+00
1.2042678629e+00
1.2042668928e+00
1.2042660037e+00
1.2042651899e+00
1.2042644456e+00
1.2042637659e+00
1.2042631455e+00
1.2042625803e+00
1.2042620659e+00
1.2042615985e+00
1.2042611743e+00
1.2042607900e+00
1.2042604418e+00
1.2042601263e+00
1.2042598392e+00
1.2042595760e+00
1.2042593305e+00
1.2042590962e+00
1.2042588639e+00
1.2042586235e+00
1.2042583622e+00
1.2042580664e+00
1.2042577211e+00
1.2042368480e+00
1.2001760717e+00
1.2002171090e+00
1.2002665623e+00
1.2003393919e+00
1.2004343144e+00
1.2005496868e+00
1.2006835353e+00
1.2008336341e+00
1.2009975437e+00
1.2011727047e+00
1.2013564777e+00
1.2015462387e+00
1.2017394136e+00
1.2019335648e+00
1.2021264122e+00
1.2023159031e+00
1.2025002158e+00
1.2026778078e+00
1.2028474013e+00
1.2030080087e+00
1.2031589013e+00
1.2032996156e+00
1.2034299102e+00
1.2035497572e+00
1.2036592942e+00
1.2037588074e+00
1.2038486848e+00
1.2039293988e+00
1.2040014654e+00
1.2040654317e+00
1.2041218453e+00
1.2041712493e+00
1.2042141628e+00
1.2042510839e+00
1.2042824800e+00
1.2043087958e+00
1.2043304502e+00
1.2043478467e+00
1.2043613722e+00
1.2043714059e+00
1.2043783178e+00
1.2043824736e+00
1.2043842310e+00
1.2043839405e+00
1.2043819399e+00
1.2043785523e+00
1.2043740796e+00
1.2043688003e+00
1.2043629641e+00
1.2043567904e+00
1.2043504657e+00
1.2043441442e+00
1.2043379478e+00
1.2043319692e+00
1.2043262734e+00
1.2043209025e+00
1.2043158786e+00
1.2043112085e+00
1.2043068868e+00
1.2043028999e+00
1.2042992283e+00
1.2042958501e+00
1.2042927417e+00
1.2042898804e+00
1.2042872441e+00
1.2042848131e+00
1.2042825692e+00
1.2042804966e+00
1.2042785813e+00
1.2042768111e+00
1.2042751749e+00
1.2042736632e+00
1.2042722673e+00
1.2042709792e+00
1.2042697915e+00
1.2042686974e+00
1.2042676905e+00
1.2042667645e+00
1.2042659137e+00
1.2042651326e+00
1.2042644161e+00
1.2042637592e+00
1.2042631573e+00
1.2042626061e+00
1.2042621015e+00
1.2042616396e+00
1.2042612168e+00
1.2042608293e+00
1.2042604736e+00
1.2042601455e+00
1.2042598411e+00
1.2042595553e+00
1.2042592827e+00
1.2042590165e+00
1.2042587493e+00
1.2042584716e+00
1.2042581739e+00
1.2042578450e+00
1.2042574741e+00
1.2042364865e+00
1.2004402809e+00
1.2004797377e+00
1.2005260726e+00
1.2005942749e+00
1.2006831502e+00
1.2007911504e+00
1.2009164387e+00
1.2010569206e+00
1.2012103270e+00
1.2013742509e+00
1.2015462387e+00
1.2017238240e+00
1.2019046161e+00
1.2020863246e+00
1.2022668350e+00
1.2024442188e+00
1.2026167908e+00
1.2027831019e+00
1.2029419748e+00
1.2030924804e+00
1.2032339529e+00
1.2033659531e+00
1.2034882668e+00
1.2036008600e+00
1.2037038671e+00
1.2037975434e+00
1.2038822506e+00
1.2039584128e+00
1.2040265041e+00
1.2040870136e+00
1.2041404392e+00
1.2041872636e+00
1.2042279554e+00
1.2042629565e+00
1.2042926887e+00
1.2043175493e+00
1.2043379210e+00
1.2043541716e+00
1.2043666631e+00
1.2043757513e+00
1.2043817927e+00
1.2043851405e+00
1.2043861480e+00
1.2043851618e+00
1.2043825208e+00
1.2043785488e+00
1.2043735515e+00
1.2043678092e+00
1.2043615746e+00
1.2043550677e+00
1.2043484757e+00
1.2043419507e+00
1.2043356123e+00
1.2043295483e+00
1.2043238191e+00
1.2043184602e+00
1.2043134875e+00
1.2043089005e+00
1.2043046876e+00
1.2043008282e+00
1.2042972975e+00
1.2042940678e+00
1.2042911114e+00
1.2042884015e+00
1.2042859134e+00
1.2042836246e+00
1.2042815156e+00
1.2042795694e+00
1.2042777712e+00
1.2042761086e+00
1.2042745706e+00
1.2042731478e+00