# vtk DataFile Version 2.0
Blank
ASCII
DATASET STRUCTURED_GRID
DIMENSIONS 101 101 2
POINTS 20402 float
0.0000000000e+00 0.0000000000e+00 0.0000000000e+00
1.0000000000e-02 0.0000000000e+00 0.0000000000e+00
2.0000000000e-02 0.0000000000e+00 0.0000000000e+00
3.0000000000e-02 0.0000000000e+00 0.0000000000e+00
4.0000000000e-02 0.0000000000e+00 0.0000000000e+00
5.0000000000e-02 0.0000000000e+00 0.0000000000e+00
6.0000000000e-02 0.0000000000e+00 0.0000000000e+00
7.0000000000e-02 0.0000000000e+00 0.0000000000e+00
8.0000000000e-02 0.0000000000e+00 0.0000000000e+00
9.0000000000e-02 0.0000000000e+00 0.0000000000e+00
1.0000000000e-01 0.0000000000e+00 0.0000000000e+00
1.1000000000e-01 0.0000000000e+00 0.0000000000e+00
1.2000000000e-01 0.0000000000e+00 0.0000000000e+00
1.3000000000e-01 0.0000000000e+00 0.0000000000e+00
1.4000000000e-01 0.0000000000e+00 0.0000000000e+00
1.5000000000e-01 0.0000000000e+00 0.0000000000e+00
1.6000000000e-01 0.0000000000e+00 0.0000000000e+00
1.7000000000e-01 0.0000000000e+00 0.0000000000e+00
1.8000000000e-01 0.0000000000e+00 0.0000000000e+00
1.9000000000e-01 0.0000000000e+00 0.0000000000e+00
2.0000000000e-01 0.0000000000e+00 0.0000000000e+00
2.1000000000e-01 0.0000000000e+00 0.0000000000e+00
2.2000000000e-01 0.0000000000e+00 0.0000000000e+00
2.3000000000e-01 0.0000000000e+00 0.0000000000e+00
2.4000000000e-01 0.0000000000e+00 0.0000000000e+00
2.5000000000e-01 0.0000000000e+00 0.0000000000e+00
2.6000000000e-01 0.0000000000e+00 0.0000000000e+00
2.7000000000e-01 0.0000000000e+00 0.0000000000e+00
2.8000000000e-01 0.0000000000e+00 0.0000000000e+00
2.9000000000e-01 0.0000000000e+00 0.0000000000e+00
3.0000000000e-01 0.0000000000e+00 0.0000000000e+00
3.1000000000e-01 0.0000000000e+00 0.0000000000e+00
3.2000000000e-01 0.0000000000e+00 0.0000000000e+00
3.3000000000e-01 0.0000000000e+00 0.0000000000e+00
3.4000000000e-01 0.0000000000e+00 0.0000000000e+00
3.5000000000e-01 0.0000000000e+00 0.0000000000e+00
3.6000000000e-01 0.0000000000e+00 0.0000000000e+00
3.7000000000e-01 0.0000000000e+00 0.0000000000e+00
3.8000000000e-01 0.0000000000e+00 0.0000000000e+00
3.9000000000e-01 0.0000000000e+00 0.0000000000e+00
4.0000000000e-01 0.0000000000e+00 0.0000000000e+00
4.1000000000e-01 0.0000000000e+00 0.0000000000e+00
4.2000000000e-01 0.0000000000e+00 0.0000000000e+00
4.3000000000e-01 0.0000000000e+00 0.0000000000e+00
4.4000000000e-01 0.0000000000e+00 0.0000000000e+00
4.5000000000e-01 0.0000000000e+00 0.0000000000e+00
4.6000000000e-01 0.0000000000e+00 0.0000000000e+00
4.7000000000e-01 0.0000000000e+00 0.0000000000e+00
4.8000000000e-01 0.0000000000e+00 0.0000000000e+00
4.9000000000e-01 0.0000000000e+00 0.0000000000e+00
5.0000000000e-01 0.0000000000e+00 0.0000000000e+00
5.1000000000e-01 0.0000000000e+00 0.0000000000e+00
5.2000000000e-01 0.0000000000e+00 0.0000000000e+00
5.3000000000e-01 0.0000000000e+00 0.0000000000e+00
5.4000000000e-01 0.0000000000e+00 0.0000000000e+00
5.5000000000e-01 0.0000000000e+00 0.0000000000e+00
5.6000000000e-01 0.0000000000e+00 0.0000000000e+00
5.7000000000e-01 0.0000000000e+00 0.0000000000e+00
5.8000000000e-01 0.0000000000e+00 0.0000000000e+00
5.9000000000e-01 0.0000000000e+00 0.0000000000e+00
6.0000000000e-01 0.0000000000e+00 0.0000000000e+00
6.1000000000e-01 0.0000000000e+00 0.0000000000e+00
6.2000000000e-01 0.0000000000e+00 0.0000000000e+00
6.3000000000e-01 0.0000000000e+00 0.0000000000e+00
6.4000000000e-01 0.0000000000e+00 0.0000000000e+00
6.5000000000e-01 0.0000000000e+00 0.0000000000e+00
6.6000000000e-01 0.0000000000e+00 0.0000000000e+00
6.7000000000e-01 0.0000000000e+00 0.0000000000e+00
6.8000000000e-01 0.0000000000e+00 0.0000000000e+00
6.9000000000e-01 0.0000000000e+00 0.0000000000e+00
7.0000000000e-01 0.0000000000e+00 0.0000000000e+00
7.1000000000e-01 0.0000000000e+00 0.0000000000e+00
7.2000000000e-01 0.0000000000e+00 0.0000000000e+00
7.3000000000e-01 0.0000000000e+00 0.0000000000e+00
7.4000000000e-01 0.0000000000e+00 0.0000000000e+00
7.5000000000e-01 0.0000000000e+00 0.0000000000e+00
7.6000000000e-01 0.0000000000e+00 0.0000000000e+00
7.7000000000e-01 0.0000000000e+00 0.0000000000e+00
7.8000000000e-01 0.0000000000e+00 0.0000000000e+00
7.9000000000e-01 0.0000000000e+00 0.0000000000e+00
8.0000000000e-01 0.0000000000e+00 0.0000000000e+00
8.1000000000e-01 0.0000000000e+00 0.0000000000e+00
8.2000000000e-01 0.0000000000e+00 0.0000000000e+00
8.3000000000e-01 0.0000000000e+00 0.0000000000e+00
8.4000000000e-01 0.0000000000e+00 0.0000000000e+00
8.5000000000e-01 0.0000000000e+00 0.0000000000e+00
8.6000000000e-01 0.0000000000e+00 0.0000000000e+00
8.7000000000e-01 0.0000000000e+00 0.0000000000e+00
8.8000000000e-01 0.0000000000e+00 0.0000000000e+00
8.9000000000e-01 0.0000000000e+00 0.0000000000e+00
9.0000000000e-01 0.0000000000e+00 0.0000000000e+00
9.1000000000e-01 0.0000000000e+00 0.0000000000e+00
9.2000000000e-01 0.0000000000e+00 0.0000000000e+00
9.3000000000e-01 0.0000000000e+00 0.0000000000e+00
9.4000000000e-01 0.0000000000e+00 0.0000000000e+00
9.5000000000e-01 0.0000000000e+00 0.0000000000e+00
9.6000000000e-01 0.0000000000e+00 0.0000000000e+00
9.7000000000e-01 0.0000000000e+00 0.0000000000e+00
9.8000000000e-01 0.0000000000e+00 0.0000000000e+00
9.9000000000e-01 0.0000000000e+00 0.0000000000e+00
1.0000000000e+00 0.0000000000e+00 0.0000000000e+00
0.0000000000e+00 1.0000000000e-02 0.0000000000e+00
1.0000000000e-02 1.0000000000e-02 0.0000000000e+00
2.0000000000e-02 1.0000000000e-02 0.0000000000e+00
3.0000000000e-02 1.0000000000e-02 0.0000000000e+00
4.0000000000e-02 1.0000000000e-02 0.0000000000e+00
5.0000000000e-02 1.0000000000e-02 0.0000000000e+00
6.0000000000e-02 1.0000000000e-02 0.0000000000e+00
7.0000000000e-02 1.0000000000e-02 0.0000000000e+00
8.0000000000e-02 1.0000000000e-02 0.0000000000e+00
9.0000000000e-02 1.0000000000e-02 0.0000000000e+00
1.0000000000e-01 1.0000000000e-02 0.0000000000e+00
1.1000000000e-01 1.0000000000e-02 0.0000000000e+00
1.2000000000e-01 1.0000000000e-02 0.0000000000e+00
1.3000000000e-01 1.0000000000e-02 0.0000000000e+00
1.4000000000e-01 1.0000000000e-02 0.0000000000e+00
1.5000000000e-01 1.0000000000e-02 0.0000000000e+00
1.6000000000e-01 1.0000000000e-02 0.0000000000e+00
1.7000000000e-01 1.0000000000e-02 0.0000000000e+00
1.8000000000e-01 1.0000000000e-02 0.0000000000e+00
1.9000000000e-01 1.0000000000e-02 0.0000000000e+00
2.0000000000e-01 1.0000000000e-02 0.0000000000e+00
2.1000000000e-01 1.0000000000e-02 0.0000000000e+00
2.2000000000e-01 1.0000000000e-02 0.0000000000e+00
2.3000000000e-01 1.0000000000e-02 0.0000000000e+00
2.4000000000e-01 1.0000000000e-02 0.0000000000e+00
2.5000000000e-01 1.0000000000e-02 0.0000000000e+00
2.6000000000e-01 1.0000000000e-02 0.0000000000e+00
2.7000000000e-01 1.0000000000e-02 0.0000000000e+00
2.8000000000e-01 1.0000000000e-02 0.0000000000e+00
2.9000000000e-01 1.0000000000e-02 0.0000000000e+00
3.0000000000e-01 1.0000000000e-02 0.0000000000e+00
3.1000000000e-01 1.0000000000e-02 0.0000000000e+00
3.2000000000e-01 1.0000000000e-02 0.0000000000e+00
3.3000000000e-01 1.0000000000e-02 0.0000000000e+00
3.4000000000e-01 1.0000000000e-02 0.0000000000e+00
3.5000000000e-01 1.0000000000e-02 0.0000000000e+00
3.6000000000e-01 1.0000000000e-02 0.0000000000e+00
3.7000000000e-01 1.0000000000e-02 0.0000000000e+00
3.8000000000e-01 1.0000000000e-02 0.0000000000e+00
3.9000000000e-01 1.0000000000e-02 0.0000000000e+00
4.0000000000e-01 1.0000000000e-02 0.0000000000e+00
4.1000000000e-01 1.0000000000e-02 0.0000000000e+00
4.2000000000e-01 1.0000000000e-02 0.0000000000e+00
4.3000000000e-01 1.0000000000e-02 0.0000000000e+00
4.4000000000e-01 1.0000000000e-02 0.0000000000e+00
4.5000000000e-01 1.0000000000e-02 0.0000000000e+00
4.6000000000e-01 1.0000000000e-02 0.0000000000e+00
4.7000000000e-01 1.0000000000e-02 0.0000000000e+00
4.8000000000e-01 1.0000000000e-02 0.0000000000e+00
4.9000000000e-01 1.0000000000e-02 0.0000000000e+00
5.0000000000e-01 1.0000000000e-02 0.0000000000e+00
5.1000000000e-01 1.0000000000e-02 0.0000000000e+00
5.2000000000e-01 1.0000000000e-02 0.0000000000e+00
5.3000000000e-01 1.0000000000e-02 0.0000000000e+00
5.4000000000e-01 1.0000000000e-02 0.0000000000e+00
5.5000000000e-01 1.0000000000e-02 0.0000000000e+00
5.6000000000e-01 1.0000000000e-02 0.0000000000e+00
5.7000000000e-01 1.0000000000e-02 0.0000000000e+00
5.8000000000e-01 1.0000000000e-02 0.0000000000e+00
5.9000000000e-01 1.0000000000e-02 0.0000000000e+00
6.0000000000e-01 1.0000000000e-02 0.0000000000e+00
6.1000000000e-01 1.0000000000e-02 0.0000000000e+00
6.2000000000e-01 1.0000000000e-02 0.0000000000e+00
6.3000000000e-01 1.0000000000e-02 0.0000000000e+00
6.4000000000e-01 1.0000000000e-02 0.0000000000e+00
6.5000000000e-01 1.0000000000e-02 0.0000000000e+00
6.6000000000e-01 1.0000000000e-02 0.0000000000e+00
6.7000000000e-01 1.0000000000e-02 0.0000000000e+00
6.8000000000e-01 1.0000000000e-02 0.0000000000e+00
6.9000000000e-01 1.0000000000e-02 0.0000000000e+00
7.0000000000e-01 1.0000000000e-02 0.0000000000e+00
7.1000000000e-01 1.0000000000e-02 0.0000000000e+00
7.2000000000e-01 1.0000000000e-02 0.0000000000e+00
7.3000000000e-01 1.0000000000e-02 0.0000000000e+00
7.4000000000e-01 1.0000000000e-02 0.0000000000e+00
7.5000000000e-01 1.0000000000e-02 0.0000000000e+00
7.6000000000e-01 1.0000000000e-02 0.0000000000e+00
7.7000000000e-01 1.0000000000e-02 0.0000000000e+00
7.8000000000e-01 1.0000000000e-02 0.0000000000e+00
7.9000000000e-01 1.0000000000e-02 0.0000000000e+00
8.0000000000e-01 1.0000000000e-02 0.0000000000e+00
8.1000000000e-01 1.0000000000e-02 0.0000000000e+00
8.2000000000e-01 1.0000000000e-02 0.0000000000e+00
8.3000000000e-01 1.0000000000e-02 0.0000000000e+00
8.4000000000e-01 1.0000000000e-02 0.0000000000e+00
8.5000000000e-01 1.0000000000e-02 0.0000000000e+00
8.6000000000e-01 1.0000000000e-02 0.0000000000e+00
8.7000000000e-01 1.0000000000e-02 0.0000000000e+00
8.8000000000e-01 1.0000000000e-02 0.0000000000e+00
8.9000000000e-01 1.0000000000e-02 0.0000000000e+00
9.0000000000e-01 1.0000000000e-02 0.0000000000e+00
9.1000000000e-01 1.0000000000e-02 0.0000000000e+00
9.2000000000e-01 1.0000000000e-02 0.0000000000e+00
[...]
CELL_DATA 10000

SCALARS massDensity float
LOOKUP_TABLE default
1.1999566858e+00
1.1999440797e+00
1.2000032005e+00
1.2000808803e+00
1.2001766968e+00
1.2002898954e+00
1.2004193625e+00
1.2005636740e+00
1.2007211534e+00
1.2008899389e+00
1.2010680398e+00
1.2012533952e+00
1.2014439221e+00
1.2016375647e+00
1.2018323326e+00
1.2020263403e+00
1.2022178345e+00
1.2024052224e+00
1.2025870871e+00
1.2027622047e+00
1.2029295479e+00
1.2030882918e+00
1.2032378075e+00
1.2033776582e+00
1.2035075853e+00
1.2036274966e+00
1.2037374475e+00
1.2038376255e+00
1.2039283282e+00
1.2040099468e+00
1.2040829443e+00
1.2041478396e+00
1.2042051880e+00
1.2042555676e+00
1.2042995637e+00
1.2043377580e+00
1.2043707171e+00
1.2043989859e+00
1.2044230793e+00
1.2044434792e+00
1.2044606299e+00
1.2044749377e+00
1.2044867689e+00
1.2044964518e+00
1.2045042763e+00
1.2045104973e+00
1.2045153358e+00
1.2045189826e+00
1.2045216000e+00
1.2045233260e+00
1.2045242756e+00
1.2045245454e+00
1.2045242144e+00
1.2045233483e+00
1.2045219999e+00
1.2045202130e+00
1.2045180224e+00
1.2045154574e+00
1.2045125412e+00
1.2045092942e+00
1.2045057329e+00
1.2045018727e+00
1.2044977271e+00
1.2044933096e+00
1.2044886326e+00
1.2044837097e+00
1.2044785538e+00
1.2044731795e+00
1.2044676014e+00
1.2044618354e+00
1.2044558978e+00
1.2044498065e+00
1.2044435793e+00
1.2044372357e+00
1.2044307950e+00
1.2044242780e+00
1.2044177048e+00
1.2044110971e+00
1.2044044758e+00
1.2043978626e+00
1.2043912786e+00
1.2043847456e+00
1.2043782843e+00
1.2043719160e+00
1.2043656612e+00
1.2043595406e+00
1.2043535739e+00
1.2043477814e+00
1.2043421828e+00
1.2043367985e+00
1.2043316488e+00
1.2043267560e+00
1.2043221439e+00
1.2043178402e+00
1.2043138774e+00
1.2043102965e+00
1.2043071490e+00
1.2043045020e+00
1.2043024399e+00
1.2042955539e+00
1.1999440797e+00
1.1999194835e+00
1.1999719335e+00
1.2000446218e+00
1.2001365807e+00
1.2002466818e+00
1.2003735780e+00
1.2005156984e+00
1.2006712816e+00
1.2008384105e+00
1.2010150640e+00
1.2011991577e+00
1.2013885953e+00
1.2015813063e+00
1.2017752910e+00
1.2019686505e+00
1.2021596220e+00
1.2023465986e+00
1.2025281537e+00
1.2027030491e+00
1.2028702478e+00
1.2030289117e+00
1.2031784034e+00
1.2033182748e+00
1.2034482602e+00
1.2035682586e+00
1.2036783208e+00
1.2037786277e+00
1.2038694745e+00
1.2039512482e+00
1.2040244114e+00
1.2040894807e+00
1.2041470127e+00
1.2041975849e+00
1.2042417849e+00
1.2042801953e+00
1.2043133858e+00
1.2043419029e+00
1.2043662653e+00
1.2043869570e+00
1.2044044264e+00
1.2044190822e+00
1.2044312950e+00
1.2044413953e+00
1.2044496773e+00
1.2044563981e+00
1.2044617826e+00
1.2044660234e+00
1.2044692863e+00
1.2044717107e+00
1.2044734145e+00
1.2044744952e+00
1.2044750340e+00
1.2044750966e+00
1.2044747373e+00
1.2044739992e+00
1.2044729177e+00
1.2044715206e+00
1.2044698308e+00
1.2044678662e+00
1.2044656423e+00
1.2044631713e+00
1.2044604645e+00
1.2044575313e+00
1.2044543816e+00
1.2044510239e+00
1.2044474679e+00
1.2044437226e+00
1.2044397986e+00
1.2044357060e+00
1.2044314567e+00
1.2044270624e+00
1.2044225364e+00
1.2044178917e+00
1.2044131432e+00
1.2044083052e+00
1.2044033937e+00
1.2043984241e+00
1.2043934133e+00
1.2043883774e+00
1.2043833337e+00
1.2043782987e+00
1.2043732901e+00
1.2043683242e+00
1.2043634186e+00
1.2043585897e+00
1.2043538545e+00
1.2043492291e+00
1.2043447303e+00
1.2043403740e+00
1.2043361766e+00
1.2043321542e+00
1.2043283236e+00
1.2043247016e+00
1.2043213055e+00
1.2043181522e+00
1.2043152568e+00
1.2043126271e+00
1.2043102521e+00
1.2043028699e+00
1.2000032005e+00
1.1999719335e+00
1.2000215103e+00
1.2000917628e+00
1.2001815290e+00
1.2002895405e+00
1.2004143584e+00
1.2005543663e+00
1.2007077799e+00
1.2008726843e+00
1.2010470650e+00
1.2012288578e+00
1.2014159827e+00
1.2016063934e+00
1.2017981070e+00
1.2019892465e+00
1.2021780629e+00
1.2023629666e+00
1.2025425400e+00
1.2027155573e+00
1.2028809861e+00
1.2030379957e+00
1.2031859491e+00
1.2033244017e+00
1.2034530854e+00
1.2035718991e+00
1.2036808891e+00
1.2037802340e+00
1.2038702231e+00
1.2039512399e+00
1.2040237398e+00
1.2040882356e+00
1.2041452765e+00
1.2041954359e+00
1.2042392942e+00
1.2042774299e+00
1.2043104064e+00
1.2043387662e+00
1.2043630224e+00
1.2043836558e+00
1.2044011097e+00
1.2044157903e+00
1.2044280637e+00
1.2044382585e+00
1.2044466651e+00
1.2044535392e+00
1.2044591025e+00
1.2044635463e+00
1.2044670338e+00
1.2044697035e+00
1.2044716707e+00
1.2044730321e+00
1.2044738666e+00
1.2044742392e+00
1.2044742020e+00
1.2044737972e+00
1.2044730579e+00
1.2044720112e+00
1.2044706774e+00
1.2044690737e+00
1.2044672129e+00
1.2044651063e+00
1.2044627627e+00
1.2044601903e+00
1.2044573964e+00
1.2044543884e+00
1.2044511732e+00
1.2044477590e+00
1.2044441534e+00
1.2044403659e+00
1.2044364056e+00
1.2044322835e+00
1.2044280104e+00
1.2044235990e+00
1.2044190617e+00
1.2044144129e+00
1.2044096665e+00
1.2044048381e+00
1.2043999430e+00
1.2043949979e+00
1.2043900189e+00
1.2043850233e+00
1.2043800279e+00
1.2043750505e+00
1.2043701079e+00
1.2043652179e+00
1.2043603972e+00
1.2043556635e+00
1.2043510331e+00
1.2043465230e+00
1.2043421489e+00
1.2043379270e+00
1.2043338717e+00
1.2043299973e+00
1.2043263150e+00
1.2043228330e+00
1.2043195521e+00
1.2043164597e+00
1.2043135181e+00
1.2043060515e+00
1.2000808803e+00
1.2000446218e+00
1.2000917628e+00
1.2001595319e+00
1.2002467652e+00
1.2003521590e+00
1.2004742496e+00
1.2006114043e+00
1.2007618438e+00
1.2009236625e+00
1.2010948715e+00
1.2012734288e+00
1.2014572878e+00
1.2016444278e+00
1.2018328991e+00
1.2020208480e+00
1.2022065539e+00
1.2023884455e+00
1.2025651274e+00
1.2027353859e+00
1.2028982036e+00
1.2030527560e+00
1.2031984152e+00
1.2033347371e+00
1.2034614571e+00
1.2035784708e+00
1.2036858234e+00
1.2037836872e+00
1.2038723475e+00
1.2039521793e+00
1.2040236324e+00
1.2040872097e+00
1.2041434539e+00
1.2041929285e+00
1.2042362071e+00
1.2042738587e+00
1.2043064401e+00
1.2043344854e+00
1.2043585016e+00
1.2043789622e+00
1.2043963053e+00
1.2044109308e+00
1.2044232007e+00
1.2044334383e+00
1.2044419309e+00
1.2044489296e+00
1.2044546537e+00
1.2044592911e+00
1.2044630028e+00
1.2044659244e+00
1.2044681697e+00
1.2044698327e+00
1.2044709910e+00
1.2044717073e+00
1.2044720323e+00
1.2044720059e+00
1.2044716601e+00
1.2044710193e+00
1.2044701029e+00
1.2044689252e+00
1.2044674980e+00
1.2044658296e+00
1.2044639274e+00
1.2044617970e+00
1.2044594438e+00
1.2044568725e+00
1.2044540885e+00
1.2044510967e+00
1.2044479035e+00
1.2044445150e+00
1.2044409393e+00
1.2044371841e+00
1.2044332592e+00
1.2044291743e+00
1.2044249412e+00
1.2044205715e+00
1.2044160786e+00
1.2044114758e+00
1.2044067782e+00
1.2044020007e+00
1.2043971596e+00
1.2043922707e+00
1.2043873515e+00
1.2043824186e+00
1.2043774900e+00
1.2043725825e+00
1.2043677144e+00
1.2043629024e+00
1.2043581643e+00
1.2043535164e+00
1.2043489753e+00
1.2043445557e+00
1.2043402721e+00
1.2043361356e+00
1.2043321550e+00
1.2043283333e+00
1.2043246655e+00
1.2043211330e+00
1.2043176966e+00
1.2043106269e+00
1.2001766968e+00
1.2001365807e+00
1.2001815290e+00
1.2002467652e+00
1.2003311865e+00
1.2004335182e+00
1.2005523082e+00
1.2006859444e+00
1.2008326661e+00
1.2009906013e+00
1.2011577908e+00
1.2013322350e+00
1.2015119221e+00
1.2016948752e+00
1.2018791782e+00
1.2020630175e+00
1.2022447010e+00
1.2024226907e+00
1.2025956121e+00
1.2027622764e+00
1.2029216798e+00
1.2030730137e+00
1.2032156563e+00
1.2033491720e+00
1.2034732957e+00
1.2035879250e+00
1.2036930997e+00
1.2037889892e+00
1.2038758694e+00
1.2039541090e+00
1.2040241466e+00
1.2040864765e+00
1.2041416292e+00
1.2041901587e+00
1.2042326265e+00
1.2042695921e+00
1.2043016010e+00
1.2043291785e+00
1.2043528214e+00
1.2043729954e+00
1.2043901301e+00
1.2044046188e+00
1.2044168164e+00
1.2044270409e+00
1.2044355737e+00
1.2044426621e+00
1.2044485203e+00
1.2044533335e+00
1.2044572588e+00
1.2044604292e+00
1.2044629557e+00
1.2044649303e+00
1.2044664279e+00
1.2044675094e+00
1.2044682233e+00
1.2044686080e+00
1.2044686929e+00
1.2044685010e+00
1.2044680491e+00
1.2044673501e+00
1.2044664128e+00
1.2044652442e+00
1.2044638486e+00
1.2044622298e+00
1.2044603902e+00
1.2044583326e+00
1.2044560590e+00
1.2044535725e+00
1.2044508761e+00
1.2044479742e+00
1.2044448710e+00
1.2044415730e+00
1.2044380863e+00
1.2044344193e+00
1.2044305804e+00
1.2044265799e+00
1.2044224283e+00
1.2044181382e+00
1.2044137220e+00
1.2044091939e+00
1.2044045682e+00
1.2043998607e+00
1.2043950871e+00
1.2043902643e+00
1.2043854089e+00
1.2043805389e+00
1.2043756711e+00
1.2043708237e+00
1.2043660135e+00
1.2043612580e+00
1.2043565728e+00
1.2043519737e+00
1.2043474736e+00
1.2043430838e+00
1.2043388114e+00
1.2043346587e+00
1.2043306198e+00
1.2043266784e+00
1.2043228034e+00
1.2043165400e+00
1.2002898954e+00
1.2002466818e+00
1.2002895405e+00
1.2003521590e+00
1.2004335182e+00
1.2005323930e+00
1.2006473768e+00
1.2007768922e+00
1.2009192241e+00
1.2010725398e+00
1.2012349322e+00
1.2014044458e+00
1.2015791233e+00
1.2017570319e+00
1.2019363075e+00
1.2021151756e+00
1.2022919892e+00
1.2024652417e+00
1.2026335944e+00
1.2027958805e+00
1.2029511216e+00
1.2030985222e+00
1.2032374756e+00
1.2033675507e+00
1.2034884888e+00
1.2036001848e+00
1.2037026778e+00
1.2037961288e+00
1.2038808078e+00
1.2039570716e+00
1.2040253490e+00
1.2040861206e+00
1.2041399053e+00
1.2041872424e+00
1.2042286814e+00
1.2042647677e+00
1.2042960351e+00
1.2043229959e+00
1.2043461365e+00
1.2043659112e+00
1.2043827407e+00
1.2043970087e+00
1.2044090628e+00
1.2044192133e+00
1.2044277357e+00
1.2044348712e+00
1.2044408296e+00
1.2044457913e+00
1.2044499099e+00
1.2044533148e+00
1.2044561144e+00
1.2044583975e+00
1.2044602370e+00
1.2044616913e+00
1.2044628070e+00
1.2044636201e+00
1.2044641584e+00
1.2044644424e+00
1.2044644872e+00
1.2044643033e+00
1.2044638977e+00
1.2044632744e+00
1.2044624359e+00
1.2044613831e+00
1.2044601162e+00
1.2044586346e+00
1.2044569384e+00
1.2044550271e+00
1.2044529014e+00
1.2044505621e+00
1.2044480113e+00
1.2044452514e+00
1.2044422869e+00
1.2044391222e+00
1.2044357639e+00
1.2044322188e+00
1.2044284958e+00
1.2044246041e+00
1.2044205550e+00
1.2044163597e+00
1.2044120318e+00
1.2044075844e+00
1.2044030331e+00
1.2043983926e+00
1.2043936798e+00
1.2043889109e+00
1.2043841036e+00
1.2043792746e+00
1.2043744418e+00
1.2043696217e+00
1.2043648313e+00
1.2043600854e+00
1.2043553980e+00
1.2043507801e+00
1.2043462399e+00
1.2043417804e+00
1.2043373990e+00
1.2043330846e+00
1.2043288174e+00
1.2043237246e+00
1.2004193625e+00
1.2003735780e+00
1.2004143584e+00
1.2004742496e+00
1.2005523082e+00
1.2006473768e+00
1.2007581012e+00
1.2008829631e+00
1.2010202980e+00
1.2011683352e+00
1.2013252213e+00
1.2014890659e+00
1.2016579659e+00
1.2018300520e+00
1.2020035101e+00
1.2021766232e+00
1.2023477865e+00
1.2025155409e+00
1.2026785800e+00
1.2028357732e+00
1.2029861630e+00
1.2031289782e+00
1.2032636227e+00
1.2033896783e+00
1.2035068878e+00
1.2036151494e+00
1.2037144959e+00
1.2038050845e+00
1.2038871736e+00
1.2039611104e+00
1.2040273089e+00
1.2040862368e+00
1.2041383966e+00
1.2041843133e+00
1.2042245197e+00
1.2042595469e+00
1.2042899130e+00
1.2043161170e+00
1.2043386312e+00
1.2043578982e+00
1.2043743268e+00
1.2043882908e+00
1.2044001279e+00
1.2044101407e+00
1.2044185969e+00
1.2044257314e+00
1.2044317482e+00
1.2044368228e+00
1.2044411045e+00
1.2044447191e+00
1.2044477713e+00
1.2044503475e+00
1.2044525178e+00
1.2044543383e+00
1.2044558533e+00
1.2044570969e+00
1.2044580946e+00
1.2044588654e+00
1.2044594219e+00
1.2044597727e+00
1.2044599225e+00
1.2044598734e+00
1.2044596250e+00
1.2044591760e+00
1.2044585237e+00
1.2044576652e+00
1.2044565971e+00
1.2044553166e+00
1.2044538207e+00
1.2044521077e+00
1.2044501758e+00
1.2044480252e+00
1.2044456560e+00
1.2044430705e+00
1.2044402712e+00
1.2044372627e+00
1.2044340502e+00
1.2044306409e+00
1.2044270424e+00
1.2044232646e+00
1.2044193175e+00
1.2044152135e+00
1.2044109649e+00
1.2044065863e+00
1.2044020919e+00
1.2043974980e+00
1.2043928204e+00
1.2043880763e+00
1.2043832821e+00
1.2043784554e+00
1.2043736121e+00
1.2043687685e+00
1.2043639383e+00
1.2043591343e+00
1.2043543656e+00
1.2043496386e+00
1.2043449541e+00
1.2043403086e+00
1.2043356923e+00
1.2043321081e+00
1.2005636740e+00
1.2005156984e+00
1.2005543663e+00
1.2006114043e+00
1.2006859444e+00
1.2007768922e+00
1.2008829631e+00
1.2010026990e+00
1.2011345066e+00
1.2012766778e+00
1.2014274337e+00
1.2015849476e+00
1.2017473906e+00
1.2019129542e+00
1.2020798937e+00
1.2022465452e+00
1.2024113642e+00
1.2025729343e+00
1.2027299970e+00
1.2028814522e+00
1.2030263770e+00
1.2031640185e+00
1.2032938018e+00
1.2034153157e+00
1.2035283122e+00
1.2036326871e+00
1.2037284727e+00
1.2038158162e+00
1.2038949680e+00
1.2039662604e+00
1.2040300945e+00
1.2040869202e+00
1.2041372241e+00
1.2041815127e+00
1.2042203020e+00
1.2042541049e+00
1.2042834235e+00
1.2043087399e+00
1.2043305122e+00
1.2043491682e+00
1.2043651042e+00
1.2043786820e+00
1.2043902291e+00
1.2044000383e+00
1.2044083692e+00
1.2044154495e+00
1.2044214767e+00
1.2044266209e+00
1.2044310266e+00
1.2044348156e+00
1.2044380892e+00
1.2044409306e+00
1.2044434073e+00
1.2044455731e+00
1.2044474700e+00
1.2044491302e+00
1.2044505774e+00
1.2044518284e+00
1.2044528943e+00
1.2044537815e+00
1.2044544927e+00
1.2044550277e+00
1.2044553842e+00
1.2044555582e+00
1.2044555447e+00
1.2044553378e+00
1.2044549317e+00
1.2044543201e+00
1.2044534975e+00
1.2044524583e+00
1.2044511982e+00
1.2044497133e+00
1.2044480010e+00
1.2044460595e+00
1.2044438885e+00
1.2044414887e+00
1.2044388625e+00
1.2044360131e+00
1.2044329459e+00
1.2044296669e+00
1.2044261842e+00
1.2044225066e+00
1.2044186452e+00
1.2044146111e+00
1.2044104179e+00
1.2044060792e+00
1.2044016104e+00
1.2043970267e+00
1.2043923450e+00
1.2043875812e+00
1.2043827523e+00
1.2043778738e+00
1.2043729612e+00
1.2043680278e+00
1.2043630856e+00
1.2043581434e+00
1.2043532075e+00
1.2043482802e+00
1.2043433618e+00
1.2043416083e+00
1.2007211534e+00
1.2006712816e+00
1.2007077799e+00
1.2007618438e+00
1.2008326661e+00
1.2009192241e+00
1.2010202980e+00
1.2011345066e+00
1.2012603257e+00
1.2013961293e+00
1.2015402100e+00
1.2016908248e+00
1.2018462153e+00
1.2020046530e+00
1.2021644576e+00
1.2023240371e+00
1.2024819010e+00
1.2026366929e+00
1.2027871954e+00
1.2029323540e+00
1.2030712734e+00
1.2032032313e+00
1.2033276672e+00
1.2034441865e+00
1.2035525440e+00
1.2036526399e+00
1.2037444999e+00
1.2038282658e+00
1.2039041746e+00
1.2039725466e+00
1.2040337645e+00
1.2040882622e+00
1.2041365059e+00
1.2041789839e+00
1.2042161917e+00
1.2042486238e+00
1.2042767630e+00
1.2043010743e+00
1.2043219983e+00
1.2043399480e+00
1.2043553048e+00
1.2043684181e+00
1.2043796033e+00
1.2043891431e+00
1.2043972878e+00
1.2044042572e+00
1.2044102419e+00
1.2044154061e+00
1.2044198892e+00
1.2044238087e+00
1.2044272621e+00
1.2044303297e+00
1.2044330762e+00
1.2044355531e+00
1.2044378004e+00
1.2044398483e+00
1.2044417189e+00
1.2044434273e+00
1.2044449828e+00
1.2044463901e+00
1.2044476503e+00
1.2044487612e+00
1.2044497184e+00
1.2044505158e+00
1.2044511459e+00
1.2044516007e+00
1.2044518712e+00
1.2044519487e+00
1.2044518244e+00
1.2044514899e+00
1.2044509373e+00
1.2044501597e+00
1.2044491505e+00
1.2044479048e+00
1.2044464185e+00
1.2044446888e+00
1.2044427142e+00
1.2044404949e+00
1.2044380321e+00
1.2044353290e+00
1.2044323899e+00
1.2044292211e+00
1.2044258300e+00
1.2044222260e+00
1.2044184191e+00
1.2044144218e+00
1.2044102467e+00
1.2044059084e+00
1.2044014215e+00
1.2043968022e+00
1.2043920660e+00
1.2043872296e+00
1.2043823081e+00
1.2043773171e+00
1.2043722698e+00
1.2043671789e+00
1.2043620545e+00
1.2043569057e+00
1.2043517394e+00
1.2043521283e+00
1.2008899389e+00
1.2008384105e+00
1.2008726843e+00
1.2009236625e+00
1.2009906013e+00
1.2010725398e+00
1.2011683352e+00
1.2012766778e+00
1.2013961293e+00
1.2015251407e+00
1.2016620954e+00
1.2018053284e+00
1.2019531711e+00
1.2021039689e+00
1.2022561244e+00
1.2024081109e+00
1.2025585092e+00
1.2027060154e+00
1.2028494692e+00
1.2029878539e+00
1.2031203153e+00
1.2032461541e+00
1.2033648352e+00
1.2034759735e+00
1.2035793347e+00
1.2036748170e+00
1.2037624452e+00
1.2038423502e+00
1.2039147592e+00
1.2039799749e+00
1.2040383647e+00
1.2040903411e+00
1.2041363516e+00
1.2041768621e+00
1.2042123481e+00
1.2042432822e+00
1.2042701278e+00
1.2042933300e+00
1.2043133119e+00
1.2043304691e+00
1.2043451679e+00
1.2043577432e+00
1.2043684982e+00
1.2043777043e+00
1.2043856019e+00
1.2043924022e+00
1.2043982885e+00
1.2044034186e+00
1.2044079265e+00
1.2044119254e+00
1.2044155090e+00
1.2044187543e+00
1.2044217233e+00
1.2044244656e+00
1.2044270189e+00
1.2044294121e+00
1.2044316655e+00
1.2044337929e+00
1.2044358022e+00
1.2044376968e+00
1.2044394760e+00
1.2044411363e+00
1.2044426716e+00
1.2044440738e+00
1.2044453337e+00
1.2044464406e+00
1.2044473836e+00
1.2044481511e+00
1.2044487317e+00
1.2044491140e+00
1.2044492871e+00
1.2044492405e+00
1.2044489646e+00
1.2044484506e+00
1.2044476909e+00
1.2044466789e+00
1.2044454096e+00
1.2044438789e+00
1.2044420847e+00
1.2044400260e+00
1.2044377040e+00
1.2044351209e+00
1.2044322812e+00
1.2044291904e+00
1.2044258564e+00
1.2044222880e+00
1.2044184963e+00
1.2044144928e+00
1.2044102913e+00
1.2044059057e+00
1.2044013517e+00
1.2043966446e+00
1.2043918007e+00
1.2043868357e+00
1.2043817654e+00
1.2043766045e+00
1.2043713677e+00
1.2043660681e+00
1.2043607196e+00
1.2043635514e+00
1.2010680398e+00
1.2010150640e+00
1.2010470650e+00
1.2010948715e+00
1.2011577908e+00
1.2012349322e+00
1.2013252213e+00
1.2014274337e+00
1.2015402100e+00
1.2016620954e+00
1.2017915568e+00
1.2019270256e+00
1.2020669153e+00
1.2022096639e+00
1.2023537488e+00
1.2024977261e+00
1.2026402397e+00
1.2027800542e+00
1.2029160580e+00
1.2030472865e+00
1.2031729182e+00
1.2032922889e+00
1.2034048810e+00
1.2035103284e+00
1.2036084006e+00
1.2036990009e+00
1.2037821469e+00
1.2038579634e+00
1.2039266622e+00
1.2039885322e+00
1.2040439199e+00
1.2040932193e+00
1.2041368542e+00
1.2041752696e+00
1.2042089172e+00
1.2042382485e+00
1.2042637044e+00
1.2042857102e+00
1.2043046691e+00
1.2043209589e+00
1.2043349295e+00
1.2043469008e+00
1.2043571624e+00
1.2043659739e+00
1.2043735654e+00
1.2043801388e+00
1.2043858697e+00
1.2043909092e+00
1.2043953860e+00
1.2043994083e+00
1.2044030661e+00
1.2044064333e+00
1.2044095694e+00
1.2044125216e+00
1.2044153263e+00
1.2044180106e+00
1.2044205938e+00
1.2044230883e+00
1.2044255012e+00
1.2044278347e+00
1.2044300873e+00
1.2044322539e+00
1.2044343275e+00
1.2044362983e+00
1.2044381556e+00
1.2044398868e+00
1.2044414792e+00
1.2044429188e+00
1.2044441919e+00
1.2044452843e+00
1.2044461824e+00
1.2044468726e+00
1.2044473420e+00
1.2044475786e+00
1.2044475709e+00
1.2044473090e+00
1.2044467835e+00
1.2044459871e+00
1.2044449131e+00
1.2044435571e+00
1.2044419158e+00
1.2044399880e+00
1.2044377738e+00
1.2044352757e+00
1.2044324975e+00
1.2044294452e+00
1.2044261263e+00
1.2044225504e+00
1.2044187280e+00
1.2044146721e+00
1.2044103959e+00
1.2044059146e+00
1.2044012437e+00
1.2043963997e+00
1.2043913991e+00
1.2043862592e+00
1.2043809970e+00
1.2043756302e+00
1.2043701765e+00
1.2043757386e+00
1.2012533952e+00
1.2011991577e+00
1.2012288578e+00
1.2012734288e+00
1.2013322350e+00
1.2014044458e+00
1.2014890659e+00
1.2015849476e+00
1.2016908248e+00
1.2018053284e+00
1.2019270256e+00
1.2020544354e+00
1.2021860710e+00
1.2023204536e+00
1.2024561529e+00
1.2025917980e+00
1.2027261124e+00
1.2028579199e+00
1.2029861721e+00
1.2031099474e+00
1.2032284699e+00
1.2033411018e+00
1.2034473535e+00
1.2035468699e+00
1.2036394329e+00
1.2037249436e+00
1.2038034189e+00
1.2038749712e+00
1.2039398015e+00
1.2039981794e+00
1.2040504339e+00
1.2040969353e+00
1.2041380864e+00
1.2041743071e+00
1.2042060266e+00
1.2042336722e+00
1.2042576628e+00
1.2042784015e+00
1.2042962715e+00
1.2043116317e+00
1.2043248145e+00
1.2043361242e+00
1.2043458363e+00
1.2043541978e+00
1.2043614278e+00
1.2043677190e+00
1.2043732386e+00
1.2043781311e+00
1.2043825191e+00
1.2043865064e+00
1.2043901789e+00
1.2043936075e+00
1.2043968491e+00
1.2043999491e+00
1.2044029423e+00
1.2044058547e+00
1.2044087044e+00
1.2044115034e+00
1.2044142578e+00
1.2044169693e+00
1.2044196356e+00
1.2044222512e+00
1.2044248077e+00
1.2044272950e+00
1.2044297006e+00
1.2044320113e+00
1.2044342121e+00
1.2044362879e+00
1.2044382226e+00
1.2044400000e+00
1.2044416039e+00
1.2044430180e+00