# vtk DataFile Version 2.0
Blank
ASCII
DATASET STRUCTURED_GRID
DIMENSIONS 101 101 2
POINTS 20402 float
0.0000000000e+00 0.0000000000e+00 0.0000000000e+00
1.0000000000e-02 0.0000000000e+00 0.0000000000e+00
2.0000000000e-02 0.0000000000e+00 0.0000000000e+00
3.0000000000e-02 0.0000000000e+00 0.0000000000e+00
4.0000000000e-02 0.0000000000e+00 0.0000000000e+00
5.0000000000e-02 0.0000000000e+00 0.0000000000e+00
6.0000000000e-02 0.0000000000e+00 0.0000000000e+00
7.0000000000e-02 0.0000000000e+00 0.0000000000e+00
8.0000000000e-02 0.0000000000e+00 0.0000000000e+00
9.0000000000e-02 0.0000000000e+00 0.0000000000e+00
1.0000000000e-01 0.0000000000e+00 0.0000000000e+00
1.1000000000e-01 0.0000000000e+00 0.0000000000e+00
1.2000000000e-01 0.0000000000e+00 0.0000000000e+00
1.3000000000e-01 0.0000000000e+00 0.0000000000e+00
1.4000000000e-01 0.0000000000e+00 0.0000000000e+00
1.5000000000e-01 0.0000000000e+00 0.0000000000e+00
1.6000000000e-01 0.0000000000e+00 0.0000000000e+00
1.7000000000e-01 0.0000000000e+00 0.0000000000e+00
1.8000000000e-01 0.0000000000e+00 0.0000000000e+00
1.9000000000e-01 0.0000000000e+00 0.0000000000e+00
2.0000000000e-01 0.0000000000e+00 0.0000000000e+00
2.1000000000e-01 0.0000000000e+00 0.0000000000e+00
2.2000000000e-01 0.0000000000e+00 0.0000000000e+00
2.3000000000e-01 0.0000000000e+00 0.0000000000e+00
2.4000000000e-01 0.0000000000e+00 0.0000000000e+00
2.5000000000e-01 0.0000000000e+00 0.0000000000e+00
2.6000000000e-01 0.0000000000e+00 0.0000000000e+00
2.7000000000e-01 0.0000000000e+00 0.0000000000e+00
2.8000000000e-01 0.0000000000e+00 0.0000000000e+00
2.9000000000e-01 0.0000000000e+00 0.0000000000e+00
3.0000000000e-01 0.0000000000e+00 0.0000000000e+00
3.1000000000e-01 0.0000000000e+00 0.0000000000e+00
3.2000000000e-01 0.0000000000e+00 0.0000000000e+00
3.3000000000e-01 0.0000000000e+00 0.0000000000e+00
3.4000000000e-01 0.0000000000e+00 0.0000000000e+00
3.5000000000e-01 0.0000000000e+00 0.0000000000e+00
3.6000000000e-01 0.0000000000e+00 0.0000000000e+00
3.7000000000e-01 0.0000000000e+00 0.0000000000e+00
3.8000000000e-01 0.0000000000e+00 0.0000000000e+00
3.9000000000e-01 0.0000000000e+00 0.0000000000e+00
4.0000000000e-01 0.0000000000e+00 0.0000000000e+00
4.1000000000e-01 0.0000000000e+00 0.0000000000e+00
4.2000000000e-01 0.0000000000e+00 0.0000000000e+00
4.3000000000e-01 0.0000000000e+00 0.0000000000e+00
4.4000000000e-01 0.0000000000e+00 0.0000000000e+00
4.5000000000e-01 0.0000000000e+00 0.0000000000e+00
4.6000000000e-01 0.0000000000e+00 0.0000000000e+00
4.7000000000e-01 0.0000000000e+00 0.0000000000e+00
4.8000000000e-01 0.0000000000e+00 0.0000000000e+00
4.9000000000e-01 0.0000000000e+00 0.0000000000e+00
5.0000000000e-01 0.0000000000e+00 0.0000000000e+00
5.1000000000e-01 0.0000000000e+00 0.0000000000e+00
5.2000000000e-01 0.0000000000e+00 0.0000000000e+00
5.3000000000e-01 0.0000000000e+00 0.0000000000e+00
5.4000000000e-01 0.0000000000e+00 0.0000000000e+00
5.5000000000e-01 0.0000000000e+00 0.0000000000e+00
5.6000000000e-01 0.0000000000e+00 0.0000000000e+00
5.7000000000e-01 0.0000000000e+00 0.0000000000e+00
5.8000000000e-01 0.0000000000e+00 0.0000000000e+00
5.9000000000e-01 0.0000000000e+00 0.0000000000e+00
6.0000000000e-01 0.0000000000e+00 0.0000000000e+00
6.1000000000e-01 0.0000000000e+00 0.0000000000e+00
6.2000000000e-01 0.0000000000e+00 0.0000000000e+00
6.3000000000e-01 0.0000000000e+00 0.0000000000e+00
6.4000000000e-01 0.0000000000e+00 0.0000000000e+00
6.5000000000e-01 0.0000000000e+00 0.0000000000e+00
6.6000000000e-01 0.0000000000e+00 0.0000000000e+00
6.7000000000e-01 0.0000000000e+00 0.0000000000e+00
6.8000000000e-01 0.0000000000e+00 0.0000000000e+00
6.9000000000e-01 0.0000000000e+00 0.0000000000e+00
7.0000000000e-01 0.0000000000e+00 0.0000000000e+00
7.1000000000e-01 0.0000000000e+00 0.0000000000e+00
7.2000000000e-01 0.0000000000e+00 0.0000000000e+00
7.3000000000e-01 0.0000000000e+00 0.0000000000e+00
7.4000000000e-01 0.0000000000e+00 0.0000000000e+00
7.5000000000e-01 0.0000000000e+00 0.0000000000e+00
7.6000000000e-01 0.0000000000e+00 0.0000000000e+00
7.7000000000e-01 0.0000000000e+00 0.0000000000e+00
7.8000000000e-01 0.0000000000e+00 0.0000000000e+00
7.9000000000e-01 0.0000000000e+00 0.0000000000e+00
8.0000000000e-01 0.0000000000e+00 0.0000000000e+00
8.1000000000e-01 0.0000000000e+00 0.0000000000e+00
8.2000000000e-01 0.0000000000e+00 0.0000000000e+00
8.3000000000e-01 0.0000000000e+00 0.0000000000e+00
8.4000000000e-01 0.0000000000e+00 0.0000000000e+00
8.5000000000e-01 0.0000000000e+00 0.0000000000e+00
8.6000000000e-01 0.0000000000e+00 0.0000000000e+00
8.7000000000e-01 0.0000000000e+00 0.0000000000e+00
8.8000000000e-01 0.0000000000e+00 0.0000000000e+00
8.9000000000e-01 0.0000000000e+00 0.0000000000e+00
9.0000000000e-01 0.0000000000e+00 0.0000000000e+00
9.1000000000e-01 0.0000000000e+00 0.0000000000e+00
9.2000000000e-01 0.0000000000e+00 0.0000000000e+00
9.3000000000e-01 0.0000000000e+00 0.0000000000e+00
9.4000000000e-01 0.0000000000e+00 0.0000000000e+00
9.5000000000e-01 0.0000000000e+00 0.0000000000e+00
9.6000000000e-01 0.0000000000e+00 0.0000000000e+00
9.7000000000e-01 0.0000000000e+00 0.0000000000e+00
9.8000000000e-01 0.0000000000e+00 0.0000000000e+00
9.9000000000e-01 0.0000000000e+00 0.0000000000e+00
1.0000000000e+00 0.0000000000e+00 0.0000000000e+00
0.0000000000e+00 1.0000000000e-02 0.0000000000e+00
1.0000000000e-02 1.0000000000e-02 0.0000000000e+00
2.0000000000e-02 1.0000000000e-02 0.0000000000e+00
3.0000000000e-02 1.0000000000e-02 0.0000000000e+00
4.0000000000e-02 1.0000000000e-02 0.0000000000e+00
5.0000000000e-02 1.0000000000e-02 0.0000000000e+00
6.0000000000e-02 1.0000000000e-02 0.0000000000e+00
7.0000000000e-02 1.0000000000e-02 0.0000000000e+00
8.0000000000e-02 1.0000000000e-02 0.0000000000e+00
9.0000000000e-02 1.0000000000e-02 0.0000000000e+00
1.0000000000e-01 1.0000000000e-02 0.0000000000e+00
1.1000000000e-01 1.0000000000e-02 0.0000000000e+00
1.2000000000e-01 1.0000000000e-02 0.0000000000e+00
1.3000000000e-01 1.0000000000e-02 0.0000000000e+00
1.4000000000e-01 1.0000000000e-02 0.0000000000e+00
1.5000000000e-01 1.0000000000e-02 0.0000000000e+00
1.6000000000e-01 1.0000000000e-02 0.0000000000e+00
1.7000000000e-01 1.0000000000e-02 0.0000000000e+00
1.8000000000e-01 1.0000000000e-02 0.0000000000e+00
1.9000000000e-01 1.0000000000e-02 0.0000000000e+00
2.0000000000e-01 1.0000000000e-02 0.0000000000e+00
2.1000000000e-01 1.0000000000e-02 0.0000000000e+00
2.2000000000e-01 1.0000000000e-02 0.0000000000e+00
2.3000000000e-01 1.0000000000e-02 0.0000000000e+00
2.4000000000e-01 1.0000000000e-02 0.0000000000e+00
2.5000000000e-01 1.0000000000e-02 0.0000000000e+00
2.6000000000e-01 1.0000000000e-02 0.0000000000e+00
2.7000000000e-01 1.0000000000e-02 0.0000000000e+00
2.8000000000e-01 1.0000000000e-02 0.0000000000e+00
2.9000000000e-01 1.0000000000e-02 0.0000000000e+00
3.0000000000e-01 1.0000000000e-02 0.0000000000e+00
3.1000000000e-01 1.0000000000e-02 0.0000000000e+00
3.2000000000e-01 1.0000000000e-02 0.0000000000e+00
3.3000000000e-01 1.0000000000e-02 0.0000000000e+00
3.4000000000e-01 1.0000000000e-02 0.0000000000e+00
3.5000000000e-01 1.0000000000e-02 0.0000000000e+00
3.6000000000e-01 1.0000000000e-02 0.0000000000e+00
3.7000000000e-01 1.0000000000e-02 0.0000000000e+00
3.8000000000e-01 1.0000000000e-02 0.0000000000e+00
3.9000000000e-01 1.0000000000e-02 0.0000000000e+00
4.0000000000e-01 1.0000000000e-02 0.0000000000e+00
4.1000000000e-01 1.0000000000e-02 0.0000000000e+00
4.2000000000e-01 1.0000000000e-02 0.0000000000e+00
4.3000000000e-01 1.0000000000e-02 0.0000000000e+00
4.4000000000e-01 1.0000000000e-02 0.0000000000e+00
4.5000000000e-01 1.0000000000e-02 0.0000000000e+00
4.6000000000e-01 1.0000000000e-02 0.0000000000e+00
4.7000000000e-01 1.0000000000e-02 0.0000000000e+00
4.8000000000e-01 1.0000000000e-02 0.0000000000e+00
4.9000000000e-01 1.0000000000e-02 0.0000000000e+00
5.0000000000e-01 1.0000000000e-02 0.0000000000e+00
5.1000000000e-01 1.0000000000e-02 0.0000000000e+00
5.2000000000e-01 1.0000000000e-02 0.0000000000e+00
5.3000000000e-01 1.0000000000e-02 0.0000000000e+00
5.4000000000e-01 1.0000000000e-02 0.0000000000e+00
5.5000000000e-01 1.0000000000e-02 0.0000000000e+00
5.6000000000e-01 1.0000000000e-02 0.0000000000e+00
5.7000000000e-01 1.0000000000e-02 0.0000000000e+00
5.8000000000e-01 1.0000000000e-02 0.0000000000e+00
5.9000000000e-01 1.0000000000e-02 0.0000000000e+00
6.0000000000e-01 1.0000000000e-02 0.0000000000e+00
6.1000000000e-01 1.0000000000e-02 0.0000000000e+00
6.2000000000e-01 1.0000000000e-02 0.0000000000e+00
6.3000000000e-01 1.0000000000e-02 0.0000000000e+00
6.4000000000e-01 1.0000000000e-02 0.0000000000e+00
6.5000000000e-01 1.0000000000e-02 0.0000000000e+00
6.6000000000e-01 1.0000000000e-02 0.0000000000e+00
6.7000000000e-01 1.0000000000e-02 0.0000000000e+00
6.8000000000e-01 1.0000000000e-02 0.0000000000e+00
6.9000000000e-01 1.0000000000e-02 0.0000000000e+00
7.0000000000e-01 1.0000000000e-02 0.0000000000e+00
7.1000000000e-01 1.0000000000e-02 0.0000000000e+00
7.2000000000e-01 1.0000000000e-02 0.0000000000e+00
7.3000000000e-01 1.0000000000e-02 0.0000000000e+00
7.4000000000e-01 1.0000000000e-02 0.0000000000e+00
7.5000000000e-01 1.0000000000e-02 0.0000000000e+00
7.6000000000e-01 1.0000000000e-02 0.0000000000e+00
7.7000000000e-01 1.0000000000e-02 0.0000000000e+00
7.8000000000e-01 1.0000000000e-02 0.0000000000e+00
7.9000000000e-01 1.0000000000e-02 0.0000000000e+00
8.0000000000e-01 1.0000000000e-02 0.0000000000e+00
8.1000000000e-01 1.0000000000e-02 0.0000000000e+00
8.2000000000e-01 1.0000000000e-02 0.0000000000e+00
8.3000000000e-01 1.0000000000e-02 0.0000000000e+00
8.4000000000e-01 1.0000000000e-02 0.0000000000e+00
8.5000000000e-01 1.0000000000e-02 0.0000000000e+00
8.6000000000e-01 1.0000000000e-02 0.0000000000e+00
8.7000000000e-01 1.0000000000e-02 0.0000000000e+00
8.8000000000e-01 1.0000000000e-02 0.0000000000e+00
8.9000000000e-01 1.0000000000e-02 0.0000000000e+00
9.0000000000e-01 1.0000000000e-02 0.0000000000e+00
9.1000000000e-01 1.0000000000e-02 0.0000000000e+00
9.2000000000e-01 1.0000000000e-02 0.0000000000e+00
[...]
CELL_DATA 10000

SCALARS massDensity float
LOOKUP_TABLE default
1.1971968974e+00
1.1972648502e+00
1.1973647212e+00
1.1975145194e+00
1.1977106687e+00
1.1979487233e+00
1.1982235171e+00
1.1985293411e+00
1.1988601053e+00
1.1992095373e+00
1.1995713512e+00
1.1999394380e+00
1.2003080100e+00
1.2006717532e+00
1.2010259225e+00
1.2013664374e+00
1.2016899188e+00
1.2019937221e+00
1.2022759187e+00
1.2025352754e+00
1.2027711921e+00
1.2029836446e+00
1.2031730968e+00
1.2033404256e+00
1.2034868259e+00
1.2036137356e+00
1.2037227485e+00
1.2038155515e+00
1.2038938549e+00
1.2039593486e+00
1.2040136537e+00
1.2040582980e+00
1.2040946884e+00
1.2041241033e+00
1.2041476815e+00
1.2041664267e+00
1.2041812080e+00
1.2041927721e+00
1.2042017493e+00
1.2042086705e+00
1.2042139749e+00
1.2042180272e+00
1.2042211266e+00
1.2042235219e+00
1.2042254190e+00
1.2042269946e+00
1.2042284015e+00
1.2042297793e+00
1.2042312581e+00
1.2042329653e+00
1.2042350270e+00
1.2042375716e+00
1.2042407271e+00
1.2042446213e+00
1.2042493757e+00
1.2042551016e+00
1.2042618912e+00
1.2042698111e+00
1.2042788926e+00
1.2042891246e+00
1.2043004459e+00
1.2043127415e+00
1.2043258395e+00
1.2043395138e+00
1.2043534879e+00
1.2043674453e+00
1.2043810405e+00
1.2043939152e+00
1.2044057141e+00
1.2044161030e+00
1.2044247850e+00
1.2044315153e+00
1.2044361130e+00
1.2044384689e+00
1.2044385492e+00
1.2044363946e+00
1.2044321156e+00
1.2044258841e+00
1.2044179230e+00
1.2044084925e+00
1.2043978777e+00
1.2043863742e+00
1.2043742774e+00
1.2043618700e+00
1.2043494150e+00
1.2043371476e+00
1.2043252736e+00
1.2043139653e+00
1.2043033653e+00
1.2042935881e+00
1.2042847284e+00
1.2042768678e+00
1.2042700884e+00
1.2042644822e+00
1.2042601660e+00
1.2042572884e+00
1.2042560338e+00
1.2042566062e+00
1.2042591825e+00
1.2042511887e+00
1.1972648502e+00
1.1973363051e+00
1.1974374136e+00
1.1975873657e+00
1.1977828725e+00
1.1980196810e+00
1.1982927782e+00
1.1985965544e+00
1.1989250150e+00
1.1992719493e+00
1.1996311429e+00
1.1999965312e+00
1.2003623845e+00
1.2007234212e+00
1.2010749426e+00
1.2014128903e+00
1.2017339195e+00
1.2020353979e+00
1.2023154197e+00
1.2025727548e+00
1.2028068159e+00
1.2030175745e+00
1.2032054987e+00
1.2033714555e+00
1.2035166384e+00
1.2036424718e+00
1.2037505443e+00
1.2038425278e+00
1.2039201259e+00
1.2039850134e+00
1.2040388043e+00
1.2040830125e+00
1.2041190387e+00
1.2041481492e+00
1.2041714774e+00
1.2041900173e+00
1.2042046339e+00
1.2042160658e+00
1.2042249410e+00
1.2042317833e+00
1.2042370305e+00
1.2042410417e+00
1.2042441144e+00
1.2042464920e+00
1.2042483782e+00
1.2042499430e+00
1.2042513348e+00
1.2042526840e+00
1.2042541119e+00
1.2042557321e+00
1.2042576558e+00
1.2042599908e+00
1.2042628429e+00
1.2042663117e+00
1.2042704891e+00
1.2042754520e+00
1.2042812591e+00
1.2042879416e+00
1.2042954998e+00
1.2043038951e+00
1.2043130483e+00
1.2043228354e+00
1.2043330909e+00
1.2043436086e+00
1.2043541507e+00
1.2043644553e+00
1.2043742493e+00
1.2043832600e+00
1.2043912302e+00
1.2043979297e+00
1.2044031684e+00
1.2044068044e+00
1.2044087507e+00
1.2044089783e+00
1.2044075150e+00
1.2044044424e+00
1.2043998886e+00
1.2043940205e+00
1.2043870326e+00
1.2043791382e+00
1.2043705577e+00
1.2043615109e+00
1.2043522072e+00
1.2043428413e+00
1.2043335865e+00
1.2043245948e+00
1.2043159926e+00
1.2043078849e+00
1.2043003541e+00
1.2042934669e+00
1.2042872756e+00
1.2042818271e+00
1.2042771657e+00
1.2042733421e+00
1.2042704156e+00
1.2042684585e+00
1.2042675496e+00
1.2042677639e+00
1.2042691391e+00
1.2042579478e+00
1.1973647212e+00
1.1974374136e+00
1.1975378079e+00
1.1976860556e+00
1.1978789932e+00
1.1981125063e+00
1.1983816889e+00
1.1986810554e+00
1.1990047045e+00
1.1993465417e+00
1.1997004370e+00
1.2000604331e+00
1.2004208730e+00
1.2007765681e+00
1.2011228765e+00
1.2014558130e+00
1.2017720705e+00
1.2020690675e+00
1.2023449163e+00
1.2025984155e+00
1.2028289779e+00
1.2030365848e+00
1.2032216902e+00
1.2033851563e+00
1.2035281530e+00
1.2036520904e+00
1.2037585285e+00
1.2038491203e+00
1.2039255395e+00
1.2039894411e+00
1.2040424110e+00
1.2040859451e+00
1.2041214193e+00
1.2041500850e+00
1.2041730553e+00
1.2041913127e+00
1.2042057065e+00
1.2042169674e+00
1.2042257118e+00
1.2042324590e+00
1.2042376386e+00
1.2042416082e+00
1.2042446605e+00
1.2042470397e+00
1.2042489476e+00
1.2042505573e+00
1.2042520175e+00
1.2042534635e+00
1.2042550187e+00
1.2042568020e+00
1.2042589273e+00
1.2042615068e+00
1.2042646471e+00
1.2042684492e+00
1.2042730014e+00
1.2042783766e+00
1.2042846232e+00
1.2042917610e+00
1.2042997727e+00
1.2043086011e+00
1.2043181435e+00
1.2043282534e+00
1.2043387401e+00
1.2043493765e+00
1.2043599052e+00
1.2043700512e+00
1.2043795335e+00
1.2043880803e+00
1.2043954421e+00
1.2044014052e+00
1.2044058023e+00
1.2044085207e+00
1.2044095062e+00
1.2044087645e+00
1.2044063582e+00
1.2044024006e+00
1.2043970480e+00
1.2043904887e+00
1.2043829333e+00
1.2043746027e+00
1.2043657195e+00
1.2043564976e+00
1.2043471374e+00
1.2043378181e+00
1.2043286976e+00
1.2043199082e+00
1.2043115599e+00
1.2043037391e+00
1.2042965144e+00
1.2042899375e+00
1.2042840500e+00
1.2042788857e+00
1.2042744774e+00
1.2042708579e+00
1.2042680646e+00
1.2042661357e+00
1.2042651074e+00
1.2042649970e+00
1.2042657821e+00
1.2042523322e+00
1.1975145194e+00
1.1975873657e+00
1.1976860556e+00
1.1978314141e+00
1.1980203723e+00
1.1982489184e+00
1.1985122917e+00
1.1988051303e+00
1.1991216922e+00
1.1994560095e+00
1.1998021104e+00
1.2001541558e+00
1.2005066333e+00
1.2008544537e+00
1.2011930951e+00
1.2015186459e+00
1.2018278876e+00
1.2021182829e+00
1.2023879995e+00
1.2026358518e+00
1.2028612773e+00
1.2030642485e+00
1.2032452197e+00
1.2034050263e+00
1.2035448208e+00
1.2036659758e+00
1.2037700239e+00
1.2038585758e+00
1.2039332741e+00
1.2039957324e+00
1.2040475064e+00
1.2040900544e+00
1.2041247259e+00
1.2041527409e+00
1.2041751915e+00
1.2041930349e+00
1.2042071048e+00
1.2042181131e+00
1.2042266655e+00
1.2042332679e+00
1.2042383439e+00
1.2042422420e+00
1.2042452527e+00
1.2042476150e+00
1.2042495314e+00
1.2042511733e+00
1.2042526925e+00
1.2042542248e+00
1.2042558982e+00
1.2042578339e+00
1.2042601506e+00
1.2042629620e+00
1.2042663782e+00
1.2042704989e+00
1.2042754118e+00
1.2042811832e+00
1.2042878545e+00
1.2042954322e+00
1.2043038845e+00
1.2043131341e+00
1.2043230581e+00
1.2043334858e+00
1.2043442047e+00
1.2043549650e+00
1.2043654918e+00
1.2043754956e+00
1.2043846888e+00
1.2043927987e+00
1.2043995834e+00
1.2044048441e+00
1.2044084355e+00
1.2044102721e+00
1.2044103315e+00
1.2044086527e+00
1.2044053314e+00
1.2044005123e+00
1.2043943782e+00
1.2043871396e+00
1.2043790217e+00
1.2043702547e+00
1.2043610621e+00
1.2043516546e+00
1.2043422220e+00
1.2043329316e+00
1.2043239241e+00
1.2043153156e+00
1.2043071971e+00
1.2042996394e+00
1.2042926939e+00
1.2042863993e+00
1.2042807826e+00
1.2042758661e+00
1.2042716673e+00
1.2042682046e+00
1.2042654944e+00
1.2042635522e+00
1.2042623841e+00
1.2042619801e+00
1.2042622959e+00
1.2042467850e+00
1.1977106687e+00
1.1977828725e+00
1.1978789932e+00
1.1980203723e+00
1.1982040065e+00
1.1984260204e+00
1.1986817853e+00
1.1989661236e+00
1.1992734507e+00
1.1995979994e+00
1.1999339578e+00
1.2002756812e+00
1.2006178017e+00
1.2009554006e+00
1.2012840716e+00
1.2016000371e+00
1.2019001575e+00
1.2021819872e+00
1.2024437341e+00
1.2026842621e+00
1.2029030140e+00
1.2030999757e+00
1.2032755786e+00
1.2034306442e+00
1.2035662831e+00
1.2036838361e+00
1.2037847843e+00
1.2038706979e+00
1.2039431657e+00
1.2040037592e+00
1.2040539837e+00
1.2040952591e+00
1.2041288911e+00
1.2041560674e+00
1.2041778443e+00
1.2041951544e+00
1.2042088036e+00
1.2042194859e+00
1.2042277870e+00
1.2042342009e+00
1.2042391373e+00
1.2042429383e+00
1.2042458854e+00
1.2042482153e+00
1.2042501260e+00
1.2042517896e+00
1.2042533566e+00
1.2042549662e+00
1.2042567473e+00
1.2042588256e+00
1.2042613216e+00
1.2042643533e+00
1.2042680311e+00
1.2042724565e+00
1.2042777138e+00
1.2042838663e+00
1.2042909459e+00
1.2042989492e+00
1.2043078283e+00
1.2043174892e+00
1.2043277871e+00
1.2043385305e+00
1.2043494834e+00
1.2043603760e+00
1.2043709143e+00
1.2043807961e+00
1.2043897250e+00
1.2043974280e+00
1.2044036693e+00
1.2044082640e+00
1.2044110869e+00
1.2044120789e+00
1.2044112473e+00
1.2044086631e+00
1.2044044542e+00
1.2043987952e+00
1.2043918956e+00
1.2043839867e+00
1.2043753096e+00
1.2043661025e+00
1.2043565923e+00
1.2043469853e+00
1.2043374639e+00
1.2043281818e+00
1.2043192657e+00
1.2043108138e+00
1.2043029014e+00
1.2042955811e+00
1.2042888897e+00
1.2042828498e+00
1.2042774762e+00
1.2042727764e+00
1.2042687564e+00
1.2042654188e+00
1.2042627658e+00
1.2042607943e+00
1.2042594945e+00
1.2042588402e+00
1.2042587838e+00
1.2042413651e+00
1.1979487233e+00
1.1980196810e+00
1.1981125063e+00
1.1982489184e+00
1.1984260204e+00
1.1986400573e+00
1.1988865888e+00
1.1991606102e+00
1.1994567659e+00
1.1997694813e+00
1.2000931821e+00
1.2004224102e+00
1.2007520180e+00
1.2010772471e+00
1.2013938746e+00
1.2016982429e+00
1.2019873474e+00
1.2022588157e+00
1.2025109393e+00
1.2027426099e+00
1.2029533060e+00
1.2031430024e+00
1.2033121276e+00
1.2034614633e+00
1.2035920899e+00
1.2037052914e+00
1.2038025028e+00
1.2038852302e+00
1.2039550108e+00
1.2040133531e+00
1.2040617123e+00
1.2041014517e+00
1.2041338333e+00
1.2041599972e+00
1.2041809646e+00
1.2041976303e+00
1.2042107740e+00
1.2042210615e+00
1.2042290599e+00
1.2042352433e+00
1.2042400099e+00
1.2042436883e+00
1.2042465538e+00
1.2042488352e+00
1.2042507286e+00
1.2042524022e+00
1.2042540080e+00
1.2042556843e+00
1.2042575638e+00
1.2042597732e+00
1.2042624375e+00
1.2042656758e+00
1.2042696018e+00
1.2042743159e+00
1.2042799025e+00
1.2042864190e+00
1.2042938917e+00
1.2043023051e+00
1.2043115988e+00
1.2043216604e+00
1.2043323267e+00
1.2043433838e+00
1.2043545754e+00
1.2043656098e+00
1.2043761763e+00
1.2043859579e+00
1.2043946508e+00
1.2044019794e+00
1.2044077136e+00
1.2044116806e+00
1.2044137743e+00
1.2044139598e+00
1.2044122728e+00
1.2044088151e+00
1.2044037453e+00
1.2043972673e+00
1.2043896161e+00
1.2043810447e+00
1.2043718089e+00
1.2043621570e+00
1.2043523181e+00
1.2043424968e+00
1.2043328670e+00
1.2043235722e+00
1.2043147235e+00
1.2043064047e+00
1.2042986729e+00
1.2042915657e+00
1.2042851029e+00
1.2042792938e+00
1.2042741382e+00
1.2042696323e+00
1.2042657683e+00
1.2042625381e+00
1.2042599304e+00
1.2042579317e+00
1.2042565201e+00
1.2042556646e+00
1.2042553167e+00
1.2042361388e+00
1.1982235171e+00
1.1982927782e+00
1.1983816889e+00
1.1985122917e+00
1.1986817853e+00
1.1988865888e+00
1.1991224337e+00
1.1993845553e+00
1.1996678108e+00
1.1999668945e+00
1.2002764534e+00
1.2005912941e+00
1.2009064718e+00
1.2012174611e+00
1.2015202030e+00
1.2018112229e+00
1.2020876289e+00
1.2023471735e+00
1.2025882063e+00
1.2028096857e+00
1.2030110995e+00
1.2031924386e+00
1.2033541015e+00
1.2034968482e+00
1.2036217024e+00
1.2037299016e+00
1.2038228104e+00
1.2039018768e+00
1.2039685642e+00
1.2040243211e+00
1.2040705337e+00
1.2041085101e+00
1.2041394527e+00
1.2041644555e+00
1.2041844910e+00
1.2042004181e+00
1.2042129793e+00
1.2042228141e+00
1.2042304625e+00
1.2042363811e+00
1.2042409490e+00
1.2042444843e+00
1.2042472504e+00
1.2042494706e+00
1.2042513342e+00
1.2042530086e+00
1.2042546427e+00
1.2042563771e+00
1.2042583442e+00
1.2042606746e+00
1.2042634943e+00
1.2042669265e+00
1.2042710853e+00
1.2042760732e+00
1.2042819717e+00
1.2042888362e+00
1.2042966850e+00
1.2043054942e+00
1.2043151891e+00
1.2043256425e+00
1.2043366713e+00
1.2043480426e+00
1.2043594778e+00
1.2043706667e+00
1.2043812794e+00
1.2043909861e+00
1.2043994729e+00
1.2044064626e+00
1.2044117282e+00
1.2044151083e+00
1.2044165137e+00
1.2044159323e+00
1.2044134267e+00
1.2044091276e+00
1.2044032235e+00
1.2043959464e+00
1.2043875571e+00
1.2043783289e+00
1.2043685342e+00
1.2043584300e+00
1.2043482504e+00
1.2043381973e+00
1.2043284394e+00
1.2043191084e+00
1.2043103034e+00
1.2043020919e+00
1.2042945164e+00
1.2042875973e+00
1.2042813404e+00
1.2042757392e+00
1.2042707818e+00
1.2042664508e+00
1.2042627287e+00
1.2042595958e+00
1.2042570327e+00
1.2042550164e+00
1.2042535210e+00
1.2042525116e+00
1.2042519450e+00
1.2042311577e+00
1.1985293411e+00
1.1985965544e+00
1.1986810554e+00
1.1988051303e+00
1.1989661236e+00
1.1991606102e+00
1.1993845553e+00
1.1996334121e+00
1.1999023228e+00
1.2001862265e+00
1.2004800692e+00
1.2007788965e+00
1.2010780419e+00
1.2013731868e+00
1.2016605040e+00
1.2019366744e+00
1.2021989768e+00
1.2024452590e+00
1.2026739756e+00
1.2028841221e+00
1.2030752298e+00
1.2032472772e+00
1.2034006567e+00
1.2035360789e+00
1.2036545271e+00
1.2037571670e+00
1.2038453026e+00
1.2039203010e+00
1.2039835582e+00
1.2040364429e+00
1.2040802760e+00
1.2041162941e+00
1.2041456426e+00
1.2041693553e+00
1.2041883591e+00
1.2042034653e+00
1.2042153818e+00
1.2042247127e+00
1.2042319737e+00
1.2042375960e+00
1.2042419430e+00
1.2042453158e+00
1.2042479688e+00
1.2042501150e+00
1.2042519396e+00
1.2042536045e+00
1.2042552589e+00
1.2042570412e+00
1.2042590866e+00
1.2042615261e+00
1.2042644896e+00
1.2042681012e+00
1.2042724784e+00
1.2042777230e+00
1.2042839172e+00
1.2042911117e+00
1.2042993206e+00
1.2043085096e+00
1.2043185936e+00
1.2043294288e+00
1.2043408161e+00
1.2043525017e+00
1.2043641884e+00
1.2043755448e+00
1.2043862247e+00
1.2043958829e+00
1.2044041971e+00
1.2044108852e+00
1.2044157237e+00
1.2044185597e+00
1.2044193199e+00
1.2044180130e+00
1.2044147265e+00
1.2044096191e+00
1.2044029073e+00
1.2043948512e+00
1.2043857359e+00
1.2043758565e+00
1.2043655003e+00
1.2043549360e+00
1.2043444013e+00
1.2043340988e+00
1.2043241903e+00
1.2043147998e+00
1.2043060128e+00
1.2042978839e+00
1.2042904391e+00
1.2042836848e+00
1.2042776109e+00
1.2042721983e+00
1.2042674209e+00
1.2042632515e+00
1.2042596611e+00
1.2042566225e+00
1.2042541078e+00
1.2042520900e+00
1.2042505387e+00
1.2042494213e+00
1.2042486980e+00
1.2042264505e+00
1.1988601053e+00
1.1989250150e+00
1.1990047045e+00
1.1991216922e+00
1.1992734507e+00
1.1994567659e+00
1.1996678108e+00
1.1999023228e+00
1.2001556989e+00
1.2004231972e+00
1.2007000296e+00
1.2009815563e+00
1.2012633553e+00
1.2015413854e+00
1.2018120174e+00
1.2020721502e+00
1.2023191992e+00
1.2025511601e+00
1.2027665589e+00
1.2029644694e+00
1.2031444349e+00
1.2033064517e+00
1.2034508774e+00
1.2035783946e+00
1.2036899196e+00
1.2037865609e+00
1.2038695388e+00
1.2039401493e+00
1.2039997005e+00
1.2040494881e+00
1.2040907507e+00
1.2041246582e+00
1.2041522845e+00
1.2041746077e+00
1.2041924966e+00
1.2042067190e+00
1.2042179384e+00
1.2042267270e+00
1.2042335680e+00
1.2042388711e+00
1.2042429772e+00
1.2042461738e+00
1.2042487006e+00
1.2042507636e+00
1.2042525394e+00
1.2042541875e+00
1.2042558528e+00
1.2042576748e+00
1.2042597878e+00
1.2042623260e+00
1.2042654199e+00
1.2042691975e+00
1.2042737767e+00
1.2042792620e+00
1.2042857334e+00
1.2042932410e+00
1.2043017920e+00
1.2043113461e+00
1.2043218055e+00
1.2043330141e+00
1.2043447548e+00
1.2043567570e+00
1.2043687024e+00
1.2043802421e+00
1.2043910109e+00
1.2044006503e+00
1.2044088265e+00
1.2044152535e+00
1.2044197082e+00
1.2044220457e+00
1.2044222058e+00
1.2044202165e+00
1.2044161886e+00
1.2044103067e+00
1.2044028150e+00
1.2043939996e+00
1.2043841711e+00
1.2043736445e+00
1.2043627247e+00
1.2043516903e+00
1.2043407861e+00
1.2043302140e+00
1.2043201330e+00
1.2043106575e+00
1.2043018633e+00
1.2042937905e+00
1.2042864522e+00
1.2042798388e+00
1.2042739274e+00
1.2042686842e+00
1.2042640725e+00
1.2042600529e+00
1.2042565885e+00
1.2042536435e+00
1.2042511853e+00
1.2042491820e+00
1.2042476034e+00
1.2042464173e+00
1.2042455913e+00
1.2042220211e+00
1.1992095373e+00
1.1992719493e+00
1.1993465417e+00
1.1994560095e+00
1.1995979994e+00
1.1997694813e+00
1.1999668945e+00
1.2001862265e+00
1.2004231972e+00
1.2006733450e+00
1.2009322196e+00
1.2011954555e+00
1.2014589457e+00
1.2017188860e+00
1.2019719100e+00
1.2022150950e+00
1.2024460492e+00
1.2026628786e+00
1.2028642270e+00
1.2030492115e+00
1.2032174238e+00
1.2033688464e+00
1.2035038289e+00
1.2036229981e+00
1.2037272229e+00
1.2038175306e+00
1.2038950714e+00
1.2039610494e+00
1.2040166951e+00
1.2040632134e+00
1.2041017681e+00
1.2041334476e+00
1.2041592606e+00
1.2041801169e+00
1.2041968325e+00
1.2042101216e+00
1.2042206078e+00
1.2042288230e+00
1.2042352224e+00
1.2042401869e+00
1.2042440389e+00
1.2042470468e+00
1.2042494393e+00
1.2042514099e+00
1.2042531304e+00
1.2042547532e+00
1.2042564224e+00
1.2042582747e+00
1.2042604464e+00
1.2042630711e+00
1.2042662834e+00
1.2042702117e+00
1.2042749777e+00
1.2042806854e+00
1.2042874169e+00
1.2042952183e+00
1.2043040946e+00
1.2043139969e+00
1.2043248193e+00
1.2043363913e+00
1.2043484822e+00
1.2043608021e+00
1.2043730158e+00
1.2043847544e+00
1.2043956365e+00
1.2044052873e+00
1.2044133634e+00
1.2044195713e+00
1.2044236884e+00
1.2044255748e+00
1.2044251824e+00
1.2044225559e+00
1.2044178277e+00
1.2044112069e+00
1.2044029635e+00
1.2043934101e+00
1.2043828805e+00
1.2043717117e+00
1.2043602245e+00
1.2043487107e+00
1.2043374206e+00
1.2043265592e+00
1.2043162814e+00
1.2043066960e+00
1.2042978676e+00
1.2042898255e+00
1.2042825680e+00
1.2042760733e+00
1.2042703034e+00
1.2042652131e+00
1.2042607528e+00
1.2042568745e+00
1.2042535314e+00
1.2042506822e+00
1.2042482883e+00
1.2042463164e+00
1.2042447345e+00
1.2042435146e+00
1.2042426281e+00
1.2042178583e+00
1.1995713512e+00
1.1996311429e+00
1.1997004370e+00
1.1998021104e+00
1.1999339578e+00
1.2000931821e+00
1.2002764534e+00
1.2004800692e+00
1.2007000296e+00
1.2009322196e+00
1.2011724812e+00
1.2014167903e+00
1.2016613087e+00
1.2019025334e+00
1.2021373155e+00
1.2023629689e+00
1.2025772521e+00
1.2027784310e+00
1.2029652285e+00
1.2031368456e+00
1.2032928879e+00
1.2034333562e+00
1.2035585623e+00
1.2036691015e+00
1.2037657697e+00
1.2038495310e+00
1.2039214445e+00
1.2039826358e+00
1.2040342397e+00
1.2040773810e+00
1.2041131335e+00
1.2041425125e+00
1.2041664490e+00
1.2041857913e+00
1.2042012925e+00
1.2042136189e+00
1.2042233456e+00
1.2042309697e+00
1.2042369109e+00
1.2042415262e+00
1.2042451135e+00
1.2042479259e+00
1.2042501761e+00
1.2042520493e+00
1.2042537073e+00
1.2042552994e+00
1.2042569645e+00
1.2042588397e+00
1.2042610594e+00
1.2042637604e+00
1.2042670771e+00
1.2042711422e+00
1.2042760777e+00
1.2042819910e+00
1.2042889627e+00
1.2042970400e+00
1.2043062225e+00
1.2043164574e+00
1.2043276282e+00
1.2043395550e+00
1.2043519909e+00
1.2043646315e+00
1.2043771223e+00
1.2043890776e+00
1.2044000972e+00
1.2044097926e+00
1.2044178071e+00
1.2044238408e+00
1.2044276683e+00
1.2044291538e+00
1.2044282586e+00
1.2044250424e+00
1.2044196571e+00
1.2044123345e+00
1.2044033697e+00
1.2043930996e+00
1.2043818826e+00
1.2043700760e+00
1.2043580189e+00
1.2043460148e+00
1.2043343232e+00
1.2043231510e+00
1.2043126528e+00
1.2043029307e+00
1.2042940420e+00
1.2042860035e+00
1.2042788027e+00
1.2042724031e+00
1.2042667554e+00
1.2042618009e+00
1.2042574802e+00
1.2042537343e+00
1.2042505099e+00
1.2042477580e+00
1.2042454373e+00
1.2042435105e+00
1.2042419473e+00
1.2042407202e+00
1.2042398075e+00
1.2042139423e+00
1.1999394380e+00
1.1999965312e+00
1.2000604331e+00
1.2001541558e+00
1.2002756812e+00
1.2004224102e+00
1.2005912941e+00
1.2007788965e+00
1.2009815563e+00
1.2011954555e+00
1.2014167903e+00
1.2016418268e+00
1.2018670569e+00
1.2020892281e+00
1.2023054669e+00
1.2025132756e+00
1.2027106146e+00
1.2028958664e+00
1.2030678766e+00
1.2032258922e+00
1.2033695687e+00
1.2034988928e+00
1.2036141667e+00
1.2037159275e+00
1.2038049203e+00
1.2038820237e+00
1.2039482226e+00
1.2040045462e+00
1.2040520468e+00
1.2040917541e+00
1.2041246628e+00
1.2041517025e+00
1.2041737353e+00
1.2041915380e+00
1.2042058079e+00
1.2042171549e+00
1.2042261121e+00
1.2042331342e+00
1.2042386111e+00
1.2042428699e+00
1.2042461887e+00
1.2042488001e+00
1.2042509049e+00
1.2042526753e+00
1.2042542672e+00
1.2042558221e+00
1.2042574775e+00
1.2042593668e+00
1.2042616262e+00
1.2042643913e+00
1.2042678003e+00
1.2042719862e+00
1.2042770752e+00
1.2042831748e+00
1.2042903686e+00
1.2042987011e+00
1.2043081718e+00
1.2043187211e+00
1.2043302272e+00
1.2043424978e+00
1.2043552751e+00
1.2043682378e+00
1.2043810160e+00
1.2043932050e+00
1.2044043888e+00
1.2044141618e+00
1.2044221558e+00
1.2044280614e+00
1.2044316498e+00
1.2044327867e+00
1.2044314410e+00
1.2044276849e+00