# vtk DataFile Version 2.0
Blank
ASCII
DATASET STRUCTURED_GRID
DIMENSIONS 101 101 2
POINTS 20402 float
0.0000000000e+00 0.0000000000e+00 0.0000000000e+00
1.0000000000e-02 0.0000000000e+00 0.0000000000e+00
2.0000000000e-02 0.0000000000e+00 0.0000000000e+00
3.0000000000e-02 0.0000000000e+00 0.0000000000e+00
4.0000000000e-02 0.0000000000e+00 0.0000000000e+00
5.0000000000e-02 0.0000000000e+00 0.0000000000e+00
6.0000000000e-02 0.0000000000e+00 0.0000000000e+00
7.0000000000e-02 0.0000000000e+00 0.0000000000e+00
8.0000000000e-02 0.0000000000e+00 0.0000000000e+00
9.0000000000e-02 0.0000000000e+00 0.0000000000e+00
1.0000000000e-01 0.0000000000e+00 0.0000000000e+00
1.1000000000e-01 0.0000000000e+00 0.0000000000e+00
1.2000000000e-01 0.0000000000e+00 0.0000000000e+00
1.3000000000e-01 0.0000000000e+00 0.0000000000e+00
1.4000000000e-01 0.0000000000e+00 0.0000000000e+00
1.5000000000e-01 0.0000000000e+00 0.0000000000e+00
1.6000000000e-01 0.0000000000e+00 0.0000000000e+00
1.7000000000e-01 0.0000000000e+00 0.0000000000e+00
1.8000000000e-01 0.0000000000e+00 0.0000000000e+00
1.9000000000e-01 0.0000000000e+00 0.0000000000e+00
2.0000000000e-01 0.0000000000e+00 0.0000000000e+00
2.1000000000e-01 0.0000000000e+00 0.0000000000e+00
2.2000000000e-01 0.0000000000e+00 0.0000000000e+00
2.3000000000e-01 0.0000000000e+00 0.0000000000e+00
2.4000000000e-01 0.0000000000e+00 0.0000000000e+00
2.5000000000e-01 0.0000000000e+00 0.0000000000e+00
2.6000000000e-01 0.0000000000e+00 0.0000000000e+00
2.7000000000e-01 0.0000000000e+00 0.0000000000e+00
2.8000000000e-01 0.0000000000e+00 0.0000000000e+00
2.9000000000e-01 0.0000000000e+00 0.0000000000e+00
3.0000000000e-01 0.0000000000e+00 0.0000000000e+00
3.1000000000e-01 0.0000000000e+00 0.0000000000e+00
3.2000000000e-01 0.0000000000e+00 0.0000000000e+00
3.3000000000e-01 0.0000000000e+00 0.0000000000e+00
3.4000000000e-01 0.0000000000e+00 0.0000000000e+00
3.5000000000e-01 0.0000000000e+00 0.0000000000e+00
3.6000000000e-01 0.0000000000e+00 0.0000000000e+00
3.7000000000e-01 0.0000000000e+00 0.0000000000e+00
3.8000000000e-01 0.0000000000e+00 0.0000000000e+00
3.9000000000e-01 0.0000000000e+00 0.0000000000e+00
4.0000000000e-01 0.0000000000e+00 0.0000000000e+00
4.1000000000e-01 0.0000000000e+00 0.0000000000e+00
4.2000000000e-01 0.0000000000e+00 0.0000000000e+00
4.3000000000e-01 0.0000000000e+00 0.0000000000e+00
4.4000000000e-01 0.0000000000e+00 0.0000000000e+00
4.5000000000e-01 0.0000000000e+00 0.0000000000e+00
4.6000000000e-01 0.0000000000e+00 0.0000000000e+00
4.7000000000e-01 0.0000000000e+00 0.0000000000e+00
4.8000000000e-01 0.0000000000e+00 0.0000000000e+00
4.9000000000e-01 0.0000000000e+00 0.0000000000e+00
5.0000000000e-01 0.0000000000e+00 0.0000000000e+00
5.1000000000e-01 0.0000000000e+00 0.0000000000e+00
5.2000000000e-01 0.0000000000e+00 0.0000000000e+00
5.3000000000e-01 0.0000000000e+00 0.0000000000e+00
5.4000000000e-01 0.0000000000e+00 0.0000000000e+00
5.5000000000e-01 0.0000000000e+00 0.0000000000e+00
5.6000000000e-01 0.0000000000e+00 0.0000000000e+00
5.7000000000e-01 0.0000000000e+00 0.0000000000e+00
5.8000000000e-01 0.0000000000e+00 0.0000000000e+00
5.9000000000e-01 0.0000000000e+00 0.0000000000e+00
6.0000000000e-01 0.0000000000e+00 0.0000000000e+00
6.1000000000e-01 0.0000000000e+00 0.0000000000e+00
6.2000000000e-01 0.0000000000e+00 0.0000000000e+00
6.3000000000e-01 0.0000000000e+00 0.0000000000e+00
6.4000000000e-01 0.0000000000e+00 0.0000000000e+00
6.5000000000e-01 0.0000000000e+00 0.0000000000e+00
6.6000000000e-01 0.0000000000e+00 0.0000000000e+00
6.7000000000e-01 0.0000000000e+00 0.0000000000e+00
6.8000000000e-01 0.0000000000e+00 0.0000000000e+00
6.9000000000e-01 0.0000000000e+00 0.0000000000e+00
7.0000000000e-01 0.0000000000e+00 0.0000000000e+00
7.1000000000e-01 0.0000000000e+00 0.0000000000e+00
7.2000000000e-01 0.0000000000e+00 0.0000000000e+00
7.3000000000e-01 0.0000000000e+00 0.0000000000e+00
7.4000000000e-01 0.0000000000e+00 0.0000000000e+00
7.5000000000e-01 0.0000000000e+00 0.0000000000e+00
7.6000000000e-01 0.0000000000e+00 0.0000000000e+00
7.7000000000e-01 0.0000000000e+00 0.0000000000e+00
7.8000000000e-01 0.0000000000e+00 0.0000000000e+00
7.9000000000e-01 0.0000000000e+00 0.0000000000e+00
8.0000000000e-01 0.0000000000e+00 0.0000000000e+00
8.1000000000e-01 0.0000000000e+00 0.0000000000e+00
8.2000000000e-01 0.0000000000e+00 0.0000000000e+00
8.3000000000e-01 0.0000000000e+00 0.0000000000e+00
8.4000000000e-01 0.0000000000e+00 0.0000000000e+00
8.5000000000e-01 0.0000000000e+00 0.0000000000e+00
8.6000000000e-01 0.0000000000e+00 0.0000000000e+00
8.7000000000e-01 0.0000000000e+00 0.0000000000e+00
8.8000000000e-01 0.0000000000e+00 0.0000000000e+00
8.9000000000e-01 0.0000000000e+00 0.0000000000e+00
9.0000000000e-01 0.0000000000e+00 0.0000000000e+00
9.1000000000e-01 0.0000000000e+00 0.0000000000e+00
9.2000000000e-01 0.0000000000e+00 0.0000000000e+00
9.3000000000e-01 0.0000000000e+00 0.0000000000e+00
9.4000000000e-01 0.0000000000e+00 0.0000000000e+00
9.5000000000e-01 0.0000000000e+00 0.0000000000e+00
9.6000000000e-01 0.0000000000e+00 0.0000000000e+00
9.7000000000e-01 0.0000000000e+00 0.0000000000e+00
9.8000000000e-01 0.0000000000e+00 0.0000000000e+00
9.9000000000e-01 0.0000000000e+00 0.0000000000e+00
1.0000000000e+00 0.0000000000e+00 0.0000000000e+00
0.0000000000e+00 1.0000000000e-02 0.0000000000e+00
1.0000000000e-02 1.0000000000e-02 0.0000000000e+00
2.0000000000e-02 1.0000000000e-02 0.0000000000e+00
3.0000000000e-02 1.0000000000e-02 0.0000000000e+00
4.0000000000e-02 1.0000000000e-02 0.0000000000e+00
5.0000000000e-02 1.0000000000e-02 0.0000000000e+00
6.0000000000e-02 1.0000000000e-02 0.0000000000e+00
7.0000000000e-02 1.0000000000e-02 0.0000000000e+00
8.0000000000e-02 1.0000000000e-02 0.0000000000e+00
9.0000000000e-02 1.0000000000e-02 0.0000000000e+00
1.0000000000e-01 1.0000000000e-02 0.0000000000e+00
1.1000000000e-01 1.0000000000e-02 0.0000000000e+00
1.2000000000e-01 1.0000000000e-02 0.0000000000e+00
1.3000000000e-01 1.0000000000e-02 0.0000000000e+00
1.4000000000e-01 1.0000000000e-02 0.0000000000e+00
1.5000000000e-01 1.0000000000e-02 0.0000000000e+00
1.6000000000e-01 1.0000000000e-02 0.0000000000e+00
1.7000000000e-01 1.0000000000e-02 0.0000000000e+00
1.8000000000e-01 1.0000000000e-02 0.0000000000e+00
1.9000000000e-01 1.0000000000e-02 0.0000000000e+00
2.0000000000e-01 1.0000000000e-02 0.0000000000e+00
2.1000000000e-01 1.0000000000e-02 0.0000000000e+00
2.2000000000e-01 1.0000000000e-02 0.0000000000e+00
2.3000000000e-01 1.0000000000e-02 0.0000000000e+00
2.4000000000e-01 1.0000000000e-02 0.0000000000e+00
2.5000000000e-01 1.0000000000e-02 0.0000000000e+00
2.6000000000e-01 1.0000000000e-02 0.0000000000e+00
2.7000000000e-01 1.0000000000e-02 0.0000000000e+00
2.8000000000e-01 1.0000000000e-02 0.0000000000e+00
2.9000000000e-01 1.0000000000e-02 0.0000000000e+00
3.0000000000e-01 1.0000000000e-02 0.0000000000e+00
3.1000000000e-01 1.0000000000e-02 0.0000000000e+00
3.2000000000e-01 1.0000000000e-02 0.0000000000e+00
3.3000000000e-01 1.0000000000e-02 0.0000000000e+00
3.4000000000e-01 1.0000000000e-02 0.0000000000e+00
3.5000000000e-01 1.0000000000e-02 0.0000000000e+00
3.6000000000e-01 1.0000000000e-02 0.0000000000e+00
3.7000000000e-01 1.0000000000e-02 0.0000000000e+00
3.8000000000e-01 1.0000000000e-02 0.0000000000e+00
3.9000000000e-01 1.0000000000e-02 0.0000000000e+00
4.0000000000e-01 1.0000000000e-02 0.0000000000e+00
4.1000000000e-01 1.0000000000e-02 0.0000000000e+00
4.2000000000e-01 1.0000000000e-02 0.0000000000e+00
4.3000000000e-01 1.0000000000e-02 0.0000000000e+00
4.4000000000e-01 1.0000000000e-02 0.0000000000e+00
4.5000000000e-01 1.0000000000e-02 0.0000000000e+00
4.6000000000e-01 1.0000000000e-02 0.0000000000e+00
4.7000000000e-01 1.0000000000e-02 0.0000000000e+00
4.8000000000e-01 1.0000000000e-02 0.0000000000e+00
4.9000000000e-01 1.0000000000e-02 0.0000000000e+00
5.0000000000e-01 1.0000000000e-02 0.0000000000e+00
5.1000000000e-01 1.0000000000e-02 0.0000000000e+00
5.2000000000e-01 1.0000000000e-02 0.0000000000e+00
5.3000000000e-01 1.0000000000e-02 0.0000000000e+00
5.4000000000e-01 1.0000000000e-02 0.0000000000e+00
5.5000000000e-01 1.0000000000e-02 0.0000000000e+00
5.6000000000e-01 1.0000000000e-02 0.0000000000e+00
5.7000000000e-01 1.0000000000e-02 0.0000000000e+00
5.8000000000e-01 1.0000000000e-02 0.0000000000e+00
5.9000000000e-01 1.0000000000e-02 0.0000000000e+00
6.0000000000e-01 1.0000000000e-02 0.0000000000e+00
6.1000000000e-01 1.0000000000e-02 0.0000000000e+00
6.2000000000e-01 1.0000000000e-02 0.0000000000e+00
6.3000000000e-01 1.0000000000e-02 0.0000000000e+00
6.4000000000e-01 1.0000000000e-02 0.0000000000e+00
6.5000000000e-01 1.0000000000e-02 0.0000000000e+00
6.6000000000e-01 1.0000000000e-02 0.0000000000e+00
6.7000000000e-01 1.0000000000e-02 0.0000000000e+00
6.8000000000e-01 1.0000000000e-02 0.0000000000e+00
6.9000000000e-01 1.0000000000e-02 0.0000000000e+00
7.0000000000e-01 1.0000000000e-02 0.0000000000e+00
7.1000000000e-01 1.0000000000e-02 0.0000000000e+00
7.2000000000e-01 1.0000000000e-02 0.0000000000e+00
7.3000000000e-01 1.0000000000e-02 0.0000000000e+00
7.4000000000e-01 1.0000000000e-02 0.0000000000e+00
7.5000000000e-01 1.0000000000e-02 0.0000000000e+00
7.6000000000e-01 1.0000000000e-02 0.0000000000e+00
7.7000000000e-01 1.0000000000e-02 0.0000000000e+00
7.8000000000e-01 1.0000000000e-02 0.0000000000e+00
7.9000000000e-01 1.0000000000e-02 0.0000000000e+00
8.0000000000e-01 1.0000000000e-02 0.0000000000e+00
8.1000000000e-01 1.0000000000e-02 0.0000000000e+00
8.2000000000e-01 1.0000000000e-02 0.0000000000e+00
8.3000000000e-01 1.0000000000e-02 0.0000000000e+00
8.4000000000e-01 1.0000000000e-02 0.0000000000e+00
8.5000000000e-01 1.0000000000e-02 0.0000000000e+00
8.6000000000e-01 1.0000000000e-02 0.0000000000e+00
8.7000000000e-01 1.0000000000e-02 0.0000000000e+00
8.8000000000e-01 1.0000000000e-02 0.0000000000e+00
8.9000000000e-01 1.0000000000e-02 0.0000000000e+00
9.0000000000e-01 1.0000000000e-02 0.0000000000e+00
9.1000000000e-01 1.0000000000e-02 0.0000000000e+00
9.2000000000e-01 1.0000000000e-02 0.0000000000e+00
[...]
CELL_DATA 10000

SCALARS massDensity float
LOOKUP_TABLE default
1.1970024604e+00
1.1970741540e+00
1.1971794307e+00
1.1973372531e+00
1.1975437677e+00
1.1977941724e+00
1.1980829085e+00
1.1984038282e+00
1.1987504033e+00
1.1991159128e+00
1.1994936590e+00
1.1998771429e+00
1.2002602518e+00
1.2006373899e+00
1.2010036102e+00
1.2013546823e+00
1.2016871564e+00
1.2019983652e+00
1.2022864244e+00
1.2025501789e+00
1.2027891548e+00
1.2030034692e+00
1.2031937544e+00
1.2033610528e+00
1.2035067335e+00
1.2036323922e+00
1.2037397761e+00
1.2038307010e+00
1.2039069949e+00
1.2039704385e+00
1.2040227311e+00
1.2040654538e+00
1.2041000562e+00
1.2041278388e+00
1.2041499554e+00
1.2041674100e+00
1.2041810681e+00
1.2041916625e+00
1.2041998095e+00
1.2042060179e+00
1.2042107067e+00
1.2042142146e+00
1.2042168158e+00
1.2042187288e+00
1.2042201304e+00
1.2042211616e+00
1.2042219399e+00
1.2042225636e+00
1.2042231211e+00
1.2042236945e+00
1.2042243665e+00
1.2042252225e+00
1.2042263556e+00
1.2042278665e+00
1.2042298661e+00
1.2042324726e+00
1.2042358109e+00
1.2042400065e+00
1.2042451808e+00
1.2042514423e+00
1.2042588786e+00
1.2042675458e+00
1.2042774600e+00
1.2042885873e+00
1.2043008379e+00
1.2043140613e+00
1.2043280460e+00
1.2043425224e+00
1.2043571714e+00
1.2043716351e+00
1.2043855328e+00
1.2043984788e+00
1.2044101013e+00
1.2044200621e+00
1.2044280736e+00
1.2044339141e+00
1.2044374381e+00
1.2044385830e+00
1.2044373694e+00
1.2044338986e+00
1.2044283437e+00
1.2044209389e+00
1.2044119649e+00
1.2044017346e+00
1.2043905768e+00
1.2043788226e+00
1.2043667911e+00
1.2043547808e+00
1.2043430602e+00
1.2043318660e+00
1.2043214012e+00
1.2043118421e+00
1.2043033439e+00
1.2042960560e+00
1.2042901318e+00
1.2042857443e+00
1.2042830867e+00
1.2042823620e+00
1.2042837311e+00
1.2042813631e+00
1.1970741540e+00
1.1971495354e+00
1.1972560938e+00
1.1974140515e+00
1.1976198446e+00
1.1978688936e+00
1.1981557851e+00
1.1984744973e+00
1.1988185848e+00
1.1991814142e+00
1.1995563440e+00
1.1999369447e+00
1.2003171448e+00
1.2006914045e+00
1.2010548061e+00
1.2014031621e+00
1.2017330404e+00
1.2020418038e+00
1.2023275749e+00
1.2025892169e+00
1.2028262538e+00
1.2030388109e+00
1.2032275110e+00
1.2033933974e+00
1.2035378254e+00
1.2036623861e+00
1.2037688106e+00
1.2038589076e+00
1.2039344887e+00
1.2039973266e+00
1.2040491050e+00
1.2040913976e+00
1.2041256402e+00
1.2041531273e+00
1.2041750011e+00
1.2041922607e+00
1.2042057625e+00
1.2042162360e+00
1.2042242902e+00
1.2042304322e+00
1.2042350751e+00
1.2042385566e+00
1.2042411467e+00
1.2042430634e+00
1.2042444796e+00
1.2042455363e+00
1.2042463468e+00
1.2042470084e+00
1.2042476048e+00
1.2042482145e+00
1.2042489130e+00
1.2042497785e+00
1.2042508920e+00
1.2042523411e+00
1.2042542177e+00
1.2042566190e+00
1.2042596427e+00
1.2042633845e+00
1.2042679311e+00
1.2042733547e+00
1.2042797046e+00
1.2042870007e+00
1.2042952253e+00
1.2043043185e+00
1.2043141734e+00
1.2043246362e+00
1.2043355070e+00
1.2043465465e+00
1.2043574838e+00
1.2043680287e+00
1.2043778852e+00
1.2043867666e+00
1.2043944103e+00
1.2044005919e+00
1.2044051368e+00
1.2044079288e+00
1.2044089149e+00
1.2044081061e+00
1.2044055752e+00
1.2044014497e+00
1.2043959039e+00
1.2043891466e+00
1.2043814117e+00
1.2043729439e+00
1.2043639904e+00
1.2043547886e+00
1.2043455612e+00
1.2043365080e+00
1.2043278057e+00
1.2043196042e+00
1.2043120316e+00
1.2043051949e+00
1.2042991894e+00
1.2042941020e+00
1.2042900221e+00
1.2042870427e+00
1.2042852654e+00
1.2042847897e+00
1.2042856986e+00
1.2042810164e+00
1.1971794307e+00
1.1972560938e+00
1.1973618638e+00
1.1975179605e+00
1.1977209754e+00
1.1979664557e+00
1.1982491299e+00
1.1985630841e+00
1.1989020039e+00
1.1992593530e+00
1.1996286126e+00
1.2000034393e+00
1.2003778710e+00
1.2007464383e+00
1.2011043132e+00
1.2014473585e+00
1.2017722077e+00
1.2020762520e+00
1.2023576545e+00
1.2026152858e+00
1.2028486876e+00
1.2030579752e+00
1.2032437713e+00
1.2034070961e+00
1.2035492926e+00
1.2036719217e+00
1.2037766949e+00
1.2038653883e+00
1.2039397915e+00
1.2040016458e+00
1.2040526140e+00
1.2040942417e+00
1.2041279468e+00
1.2041550001e+00
1.2041765301e+00
1.2041935172e+00
1.2042068076e+00
1.2042171168e+00
1.2042250470e+00
1.2042310950e+00
1.2042356704e+00
1.2042391035e+00
1.2042416629e+00
1.2042435620e+00
1.2042449743e+00
1.2042460382e+00
1.2042468694e+00
1.2042475648e+00
1.2042482119e+00
1.2042488910e+00
1.2042496827e+00
1.2042506686e+00
1.2042519357e+00
1.2042535754e+00
1.2042556853e+00
1.2042583651e+00
1.2042617154e+00
1.2042658306e+00
1.2042707949e+00
1.2042766727e+00
1.2042835028e+00
1.2042912890e+00
1.2042999950e+00
1.2043095373e+00
1.2043197844e+00
1.2043305554e+00
1.2043416255e+00
1.2043527317e+00
1.2043635852e+00
1.2043738834e+00
1.2043833262e+00
1.2043916310e+00
1.2043985487e+00
1.2044038763e+00
1.2044074680e+00
1.2044092417e+00
1.2044091816e+00
1.2044073370e+00
1.2044038164e+00
1.2043987799e+00
1.2043924275e+00
1.2043849881e+00
1.2043767060e+00
1.2043678306e+00
1.2043586045e+00
1.2043492568e+00
1.2043399949e+00
1.2043310029e+00
1.2043224373e+00
1.2043144308e+00
1.2043070917e+00
1.2043005110e+00
1.2042947643e+00
1.2042899207e+00
1.2042860437e+00
1.2042831977e+00
1.2042814433e+00
1.2042808344e+00
1.2042814026e+00
1.2042745654e+00
1.1973372531e+00
1.1974140515e+00
1.1975179605e+00
1.1976709311e+00
1.1978696345e+00
1.1981097585e+00
1.1983861596e+00
1.1986930937e+00
1.1990243852e+00
1.1993736735e+00
1.1997345749e+00
1.2001009125e+00
1.2004668435e+00
1.2008270426e+00
1.2011767748e+00
1.2015120147e+00
1.2018294573e+00
1.2021265689e+00
1.2024015415e+00
1.2026532852e+00
1.2028813413e+00
1.2030858344e+00
1.2032673641e+00
1.2034269375e+00
1.2035658595e+00
1.2036856639e+00
1.2037880172e+00
1.2038746617e+00
1.2039473410e+00
1.2040077623e+00
1.2040575459e+00
1.2040982067e+00
1.2041311262e+00
1.2041575502e+00
1.2041785775e+00
1.2041951695e+00
1.2042081499e+00
1.2042182206e+00
1.2042259673e+00
1.2042318780e+00
1.2042363506e+00
1.2042397106e+00
1.2042422187e+00
1.2042440864e+00
1.2042454824e+00
1.2042465454e+00
1.2042473891e+00
1.2042481127e+00
1.2042488038e+00
1.2042495470e+00
1.2042504249e+00
1.2042515246e+00
1.2042529364e+00
1.2042547577e+00
1.2042570894e+00
1.2042600357e+00
1.2042636982e+00
1.2042681721e+00
1.2042735375e+00
1.2042798532e+00
1.2042871466e+00
1.2042954080e+00
1.2043045815e+00
1.2043145628e+00
1.2043251951e+00
1.2043362730e+00
1.2043475458e+00
1.2043587291e+00
1.2043695149e+00
1.2043795892e+00
1.2043886467e+00
1.2043964085e+00
1.2044026374e+00
1.2044071508e+00
1.2044098299e+00
1.2044106251e+00
1.2044095563e+00
1.2044067091e+00
1.2044022273e+00
1.2043963017e+00
1.2043891588e+00
1.2043810456e+00
1.2043722191e+00
1.2043629320e+00
1.2043534251e+00
1.2043439179e+00
1.2043346057e+00
1.2043256547e+00
1.2043172047e+00
1.2043093674e+00
1.2043022335e+00
1.2042958733e+00
1.2042903448e+00
1.2042856947e+00
1.2042819654e+00
1.2042791928e+00
1.2042774091e+00
1.2042766340e+00
1.2042768707e+00
1.2042677810e+00
1.1975437677e+00
1.1976198446e+00
1.1977209754e+00
1.1978696345e+00
1.1980625949e+00
1.1982956623e+00
1.1985638754e+00
1.1988616530e+00
1.1991830344e+00
1.1995218354e+00
1.1998718913e+00
1.2002271925e+00
1.2005820965e+00
1.2009314192e+00
1.2012705905e+00
1.2015956882e+00
1.2019035268e+00
1.2021916331e+00
1.2024582708e+00
1.2027023696e+00
1.2029234995e+00
1.2031217700e+00
1.2032977752e+00
1.2034524825e+00
1.2035871676e+00
1.2037033104e+00
1.2038025353e+00
1.2038865253e+00
1.2039569783e+00
1.2040155442e+00
1.2040637997e+00
1.2041032092e+00
1.2041351166e+00
1.2041607259e+00
1.2041811063e+00
1.2041971865e+00
1.2042097682e+00
1.2042195289e+00
1.2042270394e+00
1.2042327703e+00
1.2042371098e+00
1.2042403717e+00
1.2042428114e+00
1.2042446329e+00
1.2042460028e+00
1.2042470556e+00
1.2042479056e+00
1.2042486504e+00
1.2042493804e+00
1.2042501808e+00
1.2042511389e+00
1.2042523441e+00
1.2042538926e+00
1.2042558849e+00
1.2042584272e+00
1.2042616263e+00
1.2042655867e+00
1.2042704029e+00
1.2042761531e+00
1.2042828891e+00
1.2042906298e+00
1.2042993506e+00
1.2043089793e+00
1.2043193895e+00
1.2043304024e+00
1.2043417868e+00
1.2043532691e+00
1.2043645417e+00
1.2043752796e+00
1.2043851557e+00
1.2043938596e+00
1.2044011149e+00
1.2044066952e+00
1.2044104363e+00
1.2044122450e+00
1.2044121025e+00
1.2044100624e+00
1.2044062457e+00
1.2044008295e+00
1.2043940357e+00
1.2043861152e+00
1.2043773352e+00
1.2043679634e+00
1.2043582586e+00
1.2043484587e+00
1.2043387768e+00
1.2043293943e+00
1.2043204632e+00
1.2043121036e+00
1.2043044100e+00
1.2042974519e+00
1.2042912817e+00
1.2042859362e+00
1.2042814441e+00
1.2042778248e+00
1.2042750943e+00
1.2042732595e+00
1.2042723194e+00
1.2042722565e+00
1.2042609300e+00
1.1977941724e+00
1.1978688936e+00
1.1979664557e+00
1.1981097585e+00
1.1982956623e+00
1.1985201429e+00
1.1987784058e+00
1.1990651049e+00
1.1993744836e+00
1.1997006178e+00
1.2000375524e+00
1.2003795308e+00
1.2007211000e+00
1.2010572961e+00
1.2013836995e+00
1.2016965587e+00
1.2019927889e+00
1.2022700305e+00
1.2025265965e+00
1.2027614745e+00
1.2029742373e+00
1.2031650051e+00
1.2033343387e+00
1.2034831815e+00
1.2036127518e+00
1.2037244840e+00
1.2038199336e+00
1.2039007283e+00
1.2039684957e+00
1.2040248297e+00
1.2040712424e+00
1.2041091478e+00
1.2041398348e+00
1.2041644659e+00
1.2041840661e+00
1.2041995322e+00
1.2042116324e+00
1.2042210215e+00
1.2042282458e+00
1.2042337608e+00
1.2042379377e+00
1.2042410811e+00
1.2042434350e+00
1.2042451987e+00
1.2042465318e+00
1.2042475674e+00
1.2042484163e+00
1.2042491771e+00
1.2042499393e+00
1.2042507916e+00
1.2042518223e+00
1.2042531260e+00
1.2042548013e+00
1.2042569544e+00
1.2042596946e+00
1.2042631331e+00
1.2042673756e+00
1.2042725179e+00
1.2042786349e+00
1.2042857744e+00
1.2042939449e+00
1.2043031105e+00
1.2043131812e+00
1.2043240123e+00
1.2043354012e+00
1.2043470946e+00
1.2043587942e+00
1.2043701719e+00
1.2043808838e+00
1.2043905908e+00
1.2043989758e+00
1.2044057642e+00
1.2044107385e+00
1.2044137516e+00
1.2044147340e+00
1.2044136955e+00
1.2044107224e+00
1.2044059687e+00
1.2043996449e+00
1.2043920017e+00
1.2043833159e+00
1.2043738729e+00
1.2043639540e+00
1.2043538222e+00
1.2043437161e+00
1.2043338405e+00
1.2043243672e+00
1.2043154316e+00
1.2043071382e+00
1.2042995612e+00
1.2042927526e+00
1.2042867442e+00
1.2042815555e+00
1.2042771948e+00
1.2042736650e+00
1.2042709620e+00
1.2042690773e+00
1.2042679929e+00
1.2042676814e+00
1.2042542171e+00
1.1980829085e+00
1.1981557851e+00
1.1982491299e+00
1.1983861596e+00
1.1985638754e+00
1.1987784058e+00
1.1990251906e+00
1.1992990995e+00
1.1995946607e+00
1.1999061912e+00
1.2002280320e+00
1.2005546596e+00
1.2008808940e+00
1.2012019701e+00
1.2015136932e+00
1.2018124585e+00
1.2020953438e+00
1.2023600764e+00
1.2026050662e+00
1.2028293302e+00
1.2030324781e+00
1.2032146118e+00
1.2033762812e+00
1.2035183766e+00
1.2036420734e+00
1.2037487323e+00
1.2038398484e+00
1.2039169688e+00
1.2039816549e+00
1.2040354231e+00
1.2040797228e+00
1.2041158994e+00
1.2041451880e+00
1.2041686946e+00
1.2041874014e+00
1.2042021612e+00
1.2042137107e+00
1.2042226717e+00
1.2042295688e+00
1.2042348341e+00
1.2042388249e+00
1.2042418297e+00
1.2042440846e+00
1.2042457785e+00
1.2042470671e+00
1.2042480776e+00
1.2042489201e+00
1.2042496904e+00
1.2042504800e+00
1.2042513771e+00
1.2042524743e+00
1.2042538675e+00
1.2042556608e+00
1.2042579631e+00
1.2042608889e+00
1.2042645517e+00
1.2042690608e+00
1.2042745114e+00
1.2042809779e+00
1.2042885020e+00
1.2042970859e+00
1.2043066802e+00
1.2043171813e+00
1.2043284244e+00
1.2043401871e+00
1.2043521922e+00
1.2043641199e+00
1.2043756197e+00
1.2043863309e+00
1.2043959002e+00
1.2044040042e+00
1.2044103678e+00
1.2044147817e+00
1.2044171136e+00
1.2044173156e+00
1.2044154246e+00
1.2044115573e+00
1.2044059002e+00
1.2043986946e+00
1.2043902210e+00
1.2043807802e+00
1.2043706777e+00
1.2043602068e+00
1.2043496384e+00
1.2043392097e+00
1.2043291215e+00
1.2043195340e+00
1.2043105702e+00
1.2043023167e+00
1.2042948315e+00
1.2042881466e+00
1.2042822771e+00
1.2042772231e+00
1.2042729774e+00
1.2042695252e+00
1.2042668494e+00
1.2042649271e+00
1.2042637321e+00
1.2042632296e+00
1.2042477771e+00
1.1984038282e+00
1.1984744973e+00
1.1985630841e+00
1.1986930937e+00
1.1988616530e+00
1.1990651049e+00
1.1992990995e+00
1.1995587973e+00
1.1998389848e+00
1.2001343037e+00
1.2004393625e+00
1.2007489555e+00
1.2010581464e+00
1.2013624477e+00
1.2016578590e+00
1.2019409904e+00
1.2022090506e+00
1.2024599095e+00
1.2026920416e+00
1.2029045358e+00
1.2030970067e+00
1.2032695680e+00
1.2034227283e+00
1.2035573451e+00
1.2036745222e+00
1.2037755599e+00
1.2038618667e+00
1.2039349174e+00
1.2039961847e+00
1.2040471122e+00
1.2040890677e+00
1.2041233314e+00
1.2041510687e+00
1.2041733318e+00
1.2041910474e+00
1.2042050268e+00
1.2042159646e+00
1.2042244531e+00
1.2042309861e+00
1.2042359759e+00
1.2042397586e+00
1.2042426103e+00
1.2042447529e+00
1.2042463687e+00
1.2042476044e+00
1.2042485846e+00
1.2042494142e+00
1.2042501895e+00
1.2042510001e+00
1.2042519368e+00
1.2042530925e+00
1.2042545677e+00
1.2042564684e+00
1.2042589090e+00
1.2042620064e+00
1.2042658791e+00
1.2042706374e+00
1.2042763789e+00
1.2042831756e+00
1.2042910666e+00
1.2043000453e+00
1.2043100537e+00
1.2043209722e+00
1.2043326201e+00
1.2043447538e+00
1.2043570756e+00
1.2043692426e+00
1.2043808847e+00
1.2043916218e+00
1.2044010880e+00
1.2044089512e+00
1.2044149354e+00
1.2044188370e+00
1.2044205368e+00
1.2044200067e+00
1.2044173084e+00
1.2044125876e+00
1.2044060607e+00
1.2043980002e+00
1.2043887143e+00
1.2043785291e+00
1.2043677687e+00
1.2043567413e+00
1.2043457239e+00
1.2043349564e+00
1.2043246340e+00
1.2043149094e+00
1.2043058915e+00
1.2042976533e+00
1.2042902343e+00
1.2042836508e+00
1.2042778989e+00
1.2042729636e+00
1.2042688206e+00
1.2042654427e+00
1.2042627991e+00
1.2042608591e+00
1.2042595889e+00
1.2042589541e+00
1.2042416783e+00
1.1987504033e+00
1.1988185848e+00
1.1989020039e+00
1.1990243852e+00
1.1991830344e+00
1.1993744836e+00
1.1995946607e+00
1.1998389848e+00
1.2001025786e+00
1.2003803727e+00
1.2006673255e+00
1.2009585121e+00
1.2012493195e+00
1.2015355000e+00
1.2018133198e+00
1.2020795665e+00
1.2023316411e+00
1.2025675193e+00
1.2027857894e+00
1.2029855768e+00
1.2031665388e+00
1.2033287678e+00
1.2034727579e+00
1.2035993039e+00
1.2037094563e+00
1.2038044288e+00
1.2038855555e+00
1.2039542157e+00
1.2040118019e+00
1.2040596653e+00
1.2040990979e+00
1.2041312981e+00
1.2041573668e+00
1.2041782885e+00
1.2041949385e+00
1.2042080758e+00
1.2042183566e+00
1.2042263346e+00
1.2042324769e+00
1.2042371683e+00
1.2042407277e+00
1.2042434126e+00
1.2042454345e+00
1.2042469634e+00
1.2042481411e+00
1.2042490846e+00
1.2042498975e+00
1.2042506721e+00
1.2042514991e+00
1.2042524685e+00
1.2042536764e+00
1.2042552243e+00
1.2042572232e+00
1.2042597894e+00
1.2042630453e+00
1.2042671114e+00
1.2042721023e+00
1.2042781154e+00
1.2042852236e+00
1.2042934614e+00
1.2043028177e+00
1.2043132233e+00
1.2043245474e+00
1.2043365918e+00
1.2043490955e+00
1.2043617387e+00
1.2043741587e+00
1.2043859635e+00
1.2043967563e+00
1.2044061556e+00
1.2044138212e+00
1.2044194737e+00
1.2044229139e+00
1.2044240337e+00
1.2044228220e+00
1.2044193638e+00
1.2044138312e+00
1.2044064703e+00
1.2043975820e+00
1.2043875030e+00
1.2043765831e+00
1.2043651673e+00
1.2043535768e+00
1.2043420987e+00
1.2043309738e+00
1.2043203964e+00
1.2043105098e+00
1.2043014133e+00
1.2042931642e+00
1.2042857883e+00
1.2042792837e+00
1.2042736318e+00
1.2042688006e+00
1.2042647532e+00
1.2042614483e+00
1.2042588467e+00
1.2042569086e+00
1.2042555984e+00
1.2042548808e+00
1.2042359433e+00
1.1991159128e+00
1.1991814142e+00
1.1992593530e+00
1.1993736735e+00
1.1995218354e+00
1.1997006178e+00
1.1999061912e+00
1.2001343037e+00
1.2003803727e+00
1.2006396949e+00
1.2009075345e+00
1.2011793250e+00
1.2014507320e+00
1.2017178208e+00
1.2019770804e+00
1.2022255406e+00
1.2024607526e+00
1.2026808523e+00
1.2028845024e+00
1.2030709087e+00
1.2032397347e+00
1.2033910847e+00
1.2035254066e+00
1.2036434566e+00
1.2037462043e+00
1.2038347935e+00
1.2039104606e+00
1.2039745015e+00
1.2040282085e+00
1.2040728491e+00
1.2041096233e+00
1.2041396544e+00
1.2041639647e+00
1.2041834770e+00
1.2041990039e+00
1.2042112571e+00
1.2042208451e+00
1.2042282875e+00
1.2042340171e+00
1.2042383959e+00
1.2042417186e+00
1.2042442286e+00
1.2042461213e+00
1.2042475588e+00
1.2042486726e+00
1.2042495761e+00
1.2042503671e+00
1.2042511374e+00
1.2042519750e+00
1.2042529720e+00
1.2042542242e+00
1.2042558369e+00
1.2042579227e+00
1.2042606030e+00
1.2042640024e+00
1.2042682465e+00
1.2042734513e+00
1.2042797174e+00
1.2042871162e+00
1.2042956817e+00
1.2043053959e+00
1.2043161831e+00
1.2043278993e+00
1.2043403332e+00
1.2043532045e+00
1.2043661757e+00
1.2043788619e+00
1.2043908526e+00
1.2044017313e+00
1.2044111027e+00
1.2044186157e+00
1.2044239872e+00
1.2044270195e+00
1.2044276136e+00
1.2044257737e+00
1.2044216051e+00
1.2044153052e+00
1.2044071468e+00
1.2043974598e+00
1.2043866071e+00
1.2043749637e+00
1.2043628938e+00
1.2043507351e+00
1.2043387826e+00
1.2043272832e+00
1.2043164277e+00
1.2043063554e+00
1.2042971540e+00
1.2042888699e+00
1.2042815126e+00
1.2042750669e+00
1.2042694973e+00
1.2042647589e+00
1.2042607999e+00
1.2042575698e+00
1.2042550183e+00
1.2042531017e+00
1.2042517798e+00
1.2042510206e+00
1.2042305648e+00
1.1994936590e+00
1.1995563440e+00
1.1996286126e+00
1.1997345749e+00
1.1998718913e+00
1.2000375524e+00
1.2002280320e+00
1.2004393625e+00
1.2006673255e+00
1.2009075345e+00
1.2011556324e+00
1.2014073596e+00
1.2016587320e+00
1.2019060774e+00
1.2021461731e+00
1.2023762433e+00
1.2025940467e+00
1.2027978355e+00
1.2029863947e+00
1.2031589707e+00
1.2033152718e+00
1.2034553797e+00
1.2035797255e+00
1.2036889972e+00
1.2037841058e+00
1.2038661008e+00
1.2039361370e+00
1.2039954065e+00
1.2040451137e+00
1.2040864259e+00
1.2041204599e+00
1.2041482508e+00
1.2041707496e+00
1.2041888063e+00
1.2042031768e+00
1.2042145164e+00
1.2042233916e+00
1.2042302802e+00
1.2042355857e+00
1.2042396405e+00
1.2042427202e+00
1.2042450480e+00
1.2042468080e+00
1.2042481489e+00
1.2042491964e+00
1.2042500556e+00
1.2042508219e+00
1.2042515830e+00
1.2042524274e+00
1.2042534454e+00
1.2042547355e+00
1.2042564037e+00
1.2042585666e+00
1.2042613477e+00
1.2042648767e+00
1.2042692813e+00
1.2042746821e+00
1.2042811805e+00
1.2042888501e+00
1.2042977216e+00
1.2043077750e+00
1.2043189258e+00
1.2043310216e+00
1.2043438358e+00
1.2043570740e+00
1.2043703784e+00
1.2043833460e+00
1.2043955453e+00
1.2044065426e+00
1.2044159262e+00
1.2044233343e+00
1.2044284773e+00
1.2044311579e+00
1.2044312834e+00
1.2044288709e+00
1.2044240444e+00
1.2044170232e+00
1.2044081069e+00
1.2043976512e+00
1.2043860465e+00
1.2043736906e+00
1.2043609699e+00
1.2043482365e+00
1.2043357981e+00
1.2043239049e+00
1.2043127500e+00
1.2043024665e+00
1.2042931354e+00
1.2042847904e+00
1.2042774294e+00
1.2042710215e+00
1.2042655186e+00
1.2042608606e+00
1.2042569851e+00
1.2042538293e+00
1.2042513365e+00
1.2042494555e+00
1.2042481454e+00
1.2042473732e+00
1.2042255244e+00
1.1998771429e+00
1.1999369447e+00
1.2000034393e+00
1.2001009125e+00
1.2002271925e+00
1.2003795308e+00
1.2005546596e+00
1.2007489555e+00
1.2009585121e+00
1.2011793250e+00
1.2014073596e+00
1.2016387306e+00
1.2018697473e+00
1.2020970640e+00
1.2023176927e+00
1.2025291100e+00
1.2027292329e+00
1.2029164802e+00
1.2030897155e+00
1.2032482678e+00
1.2033918527e+00
1.2035205632e+00
1.2036347821e+00
1.2037351561e+00
1.2038225115e+00
1.2038978238e+00
1.2039621457e+00
1.2040165812e+00
1.2040622298e+00
1.2041001709e+00
1.2041314248e+00
1.2041569476e+00
1.2041776083e+00
1.2041941920e+00
1.2042073890e+00
1.2042178048e+00
1.2042259562e+00
1.2042322852e+00
1.2042371596e+00
1.2042408873e+00
1.2042437193e+00
1.2042458633e+00
1.2042474870e+00
1.2042487303e+00
1.2042497081e+00
1.2042505215e+00
1.2042512595e+00
1.2042520087e+00
1.2042528546e+00
1.2042538887e+00
1.2042552090e+00
1.2042569245e+00
1.2042591532e+00
1.2042620231e+00
1.2042656659e+00
1.2042702146e+00
1.2042757916e+00
1.2042825025e+00
1.2042904204e+00
1.2042995774e+00
1.2043099487e+00
1.2043214459e+00
1.2043339062e+00
1.2043470930e+00
1.2043606951e+00
1.2043743393e+00
1.2043876023e+00
1.2044000348e+00
1.2044111833e+00
1.2044206212e+00
1.2044279732e+00
1.2044329426e+00