# vtk DataFile Version 2.0
Blank
ASCII
DATASET STRUCTURED_GRID
DIMENSIONS 101 101 2
POINTS 20402 float
0.0000000000e+00 0.0000000000e+00 0.0000000000e+00
1.0000000000e-02 0.0000000000e+00 0.0000000000e+00
2.0000000000e-02 0.0000000000e+00 0.0000000000e+00
3.0000000000e-02 0.0000000000e+00 0.0000000000e+00
4.0000000000e-02 0.0000000000e+00 0.0000000000e+00
5.0000000000e-02 0.0000000000e+00 0.0000000000e+00
6.0000000000e-02 0.0000000000e+00 0.0000000000e+00
7.0000000000e-02 0.0000000000e+00 0.0000000000e+00
8.0000000000e-02 0.0000000000e+00 0.0000000000e+00
9.0000000000e-02 0.0000000000e+00 0.0000000000e+00
1.0000000000e-01 0.0000000000e+00 0.0000000000e+00
1.1000000000e-01 0.0000000000e+00 0.0000000000e+00
1.2000000000e-01 0.0000000000e+00 0.0000000000e+00
1.3000000000e-01 0.0000000000e+00 0.0000000000e+00
1.4000000000e-01 0.0000000000e+00 0.0000000000e+00
1.5000000000e-01 0.0000000000e+00 0.0000000000e+00
1.6000000000e-01 0.0000000000e+00 0.0000000000e+00
1.7000000000e-01 0.0000000000e+00 0.0000000000e+00
1.8000000000e-01 0.0000000000e+00 0.0000000000e+00
1.9000000000e-01 0.0000000000e+00 0.0000000000e+00
2.0000000000e-01 0.0000000000e+00 0.0000000000e+00
2.1000000000e-01 0.0000000000e+00 0.0000000000e+00
2.2000000000e-01 0.0000000000e+00 0.0000000000e+00
2.3000000000e-01 0.0000000000e+00 0.0000000000e+00
2.4000000000e-01 0.0000000000e+00 0.0000000000e+00
2.5000000000e-01 0.0000000000e+00 0.0000000000e+00
2.6000000000e-01 0.0000000000e+00 0.0000000000e+00
2.7000000000e-01 0.0000000000e+00 0.0000000000e+00
2.8000000000e-01 0.0000000000e+00 0.0000000000e+00
2.9000000000e-01 0.0000000000e+00 0.0000000000e+00
3.0000000000e-01 0.0000000000e+00 0.0000000000e+00
3.1000000000e-01 0.0000000000e+00 0.0000000000e+00
3.2000000000e-01 0.0000000000e+00 0.0000000000e+00
3.3000000000e-01 0.0000000000e+00 0.0000000000e+00
3.4000000000e-01 0.0000000000e+00 0.0000000000e+00
3.5000000000e-01 0.0000000000e+00 0.0000000000e+00
3.6000000000e-01 0.0000000000e+00 0.0000000000e+00
3.7000000000e-01 0.0000000000e+00 0.0000000000e+00
3.8000000000e-01 0.0000000000e+00 0.0000000000e+00
3.9000000000e-01 0.0000000000e+00 0.0000000000e+00
4.0000000000e-01 0.0000000000e+00 0.0000000000e+00
4.1000000000e-01 0.0000000000e+00 0.0000000000e+00
4.2000000000e-01 0.0000000000e+00 0.0000000000e+00
4.3000000000e-01 0.0000000000e+00 0.0000000000e+00
4.4000000000e-01 0.0000000000e+00 0.0000000000e+00
4.5000000000e-01 0.0000000000e+00 0.0000000000e+00
4.6000000000e-01 0.0000000000e+00 0.0000000000e+00
4.7000000000e-01 0.0000000000e+00 0.0000000000e+00
4.8000000000e-01 0.0000000000e+00 0.0000000000e+00
4.9000000000e-01 0.0000000000e+00 0.0000000000e+00
5.0000000000e-01 0.0000000000e+00 0.0000000000e+00
5.1000000000e-01 0.0000000000e+00 0.0000000000e+00
5.2000000000e-01 0.0000000000e+00 0.0000000000e+00
5.3000000000e-01 0.0000000000e+00 0.0000000000e+00
5.4000000000e-01 0.0000000000e+00 0.0000000000e+00
5.5000000000e-01 0.0000000000e+00 0.0000000000e+00
5.6000000000e-01 0.0000000000e+00 0.0000000000e+00
5.7000000000e-01 0.0000000000e+00 0.0000000000e+00
5.8000000000e-01 0.0000000000e+00 0.0000000000e+00
5.9000000000e-01 0.0000000000e+00 0.0000000000e+00
6.0000000000e-01 0.0000000000e+00 0.0000000000e+00
6.1000000000e-01 0.0000000000e+00 0.0000000000e+00
6.2000000000e-01 0.0000000000e+00 0.0000000000e+00
6.3000000000e-01 0.0000000000e+00 0.0000000000e+00
6.4000000000e-01 0.0000000000e+00 0.0000000000e+00
6.5000000000e-01 0.0000000000e+00 0.0000000000e+00
6.6000000000e-01 0.0000000000e+00 0.0000000000e+00
6.7000000000e-01 0.0000000000e+00 0.0000000000e+00
6.8000000000e-01 0.0000000000e+00 0.0000000000e+00
6.9000000000e-01 0.0000000000e+00 0.0000000000e+00
7.0000000000e-01 0.0000000000e+00 0.0000000000e+00
7.1000000000e-01 0.0000000000e+00 0.0000000000e+00
7.2000000000e-01 0.0000000000e+00 0.0000000000e+00
7.3000000000e-01 0.0000000000e+00 0.0000000000e+00
7.4000000000e-01 0.0000000000e+00 0.0000000000e+00
7.5000000000e-01 0.0000000000e+00 0.0000000000e+00
7.6000000000e-01 0.0000000000e+00 0.0000000000e+00
7.7000000000e-01 0.0000000000e+00 0.0000000000e+00
7.8000000000e-01 0.0000000000e+00 0.0000000000e+00
7.9000000000e-01 0.0000000000e+00 0.0000000000e+00
8.0000000000e-01 0.0000000000e+00 0.0000000000e+00
8.1000000000e-01 0.0000000000e+00 0.0000000000e+00
8.2000000000e-01 0.0000000000e+00 0.0000000000e+00
8.3000000000e-01 0.0000000000e+00 0.0000000000e+00
8.4000000000e-01 0.0000000000e+00 0.0000000000e+00
8.5000000000e-01 0.0000000000e+00 0.0000000000e+00
8.6000000000e-01 0.0000000000e+00 0.0000000000e+00
8.7000000000e-01 0.0000000000e+00 0.0000000000e+00
8.8000000000e-01 0.0000000000e+00 0.0000000000e+00
8.9000000000e-01 0.0000000000e+00 0.0000000000e+00
9.0000000000e-01 0.0000000000e+00 0.0000000000e+00
9.1000000000e-01 0.0000000000e+00 0.0000000000e+00
9.2000000000e-01 0.0000000000e+00 0.0000000000e+00
9.3000000000e-01 0.0000000000e+00 0.0000000000e+00
9.4000000000e-01 0.0000000000e+00 0.0000000000e+00
9.5000000000e-01 0.0000000000e+00 0.0000000000e+00
9.6000000000e-01 0.0000000000e+00 0.0000000000e+00
9.7000000000e-01 0.0000000000e+00 0.0000000000e+00
9.8000000000e-01 0.0000000000e+00 0.0000000000e+00
9.9000000000e-01 0.0000000000e+00 0.0000000000e+00
1.0000000000e+00 0.0000000000e+00 0.0000000000e+00
0.0000000000e+00 1.0000000000e-02 0.0000000000e+00
1.0000000000e-02 1.0000000000e-02 0.0000000000e+00
2.0000000000e-02 1.0000000000e-02 0.0000000000e+00
3.0000000000e-02 1.0000000000e-02 0.0000000000e+00
4.0000000000e-02 1.0000000000e-02 0.0000000000e+00
5.0000000000e-02 1.0000000000e-02 0.0000000000e+00
6.0000000000e-02 1.0000000000e-02 0.0000000000e+00
7.0000000000e-02 1.0000000000e-02 0.0000000000e+00
8.0000000000e-02 1.0000000000e-02 0.0000000000e+00
9.0000000000e-02 1.0000000000e-02 0.0000000000e+00
1.0000000000e-01 1.0000000000e-02 0.0000000000e+00
1.1000000000e-01 1.0000000000e-02 0.0000000000e+00
1.2000000000e-01 1.0000000000e-02 0.0000000000e+00
1.3000000000e-01 1.0000000000e-02 0.0000000000e+00
1.4000000000e-01 1.0000000000e-02 0.0000000000e+00
1.5000000000e-01 1.0000000000e-02 0.0000000000e+00
1.6000000000e-01 1.0000000000e-02 0.0000000000e+00
1.7000000000e-01 1.0000000000e-02 0.0000000000e+00
1.8000000000e-01 1.0000000000e-02 0.0000000000e+00
1.9000000000e-01 1.0000000000e-02 0.0000000000e+00
2.0000000000e-01 1.0000000000e-02 0.0000000000e+00
2.1000000000e-01 1.0000000000e-02 0.0000000000e+00
2.2000000000e-01 1.0000000000e-02 0.0000000000e+00
2.3000000000e-01 1.0000000000e-02 0.0000000000e+00
2.4000000000e-01 1.0000000000e-02 0.0000000000e+00
2.5000000000e-01 1.0000000000e-02 0.0000000000e+00
2.6000000000e-01 1.0000000000e-02 0.0000000000e+00
2.7000000000e-01 1.0000000000e-02 0.0000000000e+00
2.8000000000e-01 1.0000000000e-02 0.0000000000e+00
2.9000000000e-01 1.0000000000e-02 0.0000000000e+00
3.0000000000e-01 1.0000000000e-02 0.0000000000e+00
3.1000000000e-01 1.0000000000e-02 0.0000000000e+00
3.2000000000e-01 1.0000000000e-02 0.0000000000e+00
3.3000000000e-01 1.0000000000e-02 0.0000000000e+00
3.4000000000e-01 1.0000000000e-02 0.0000000000e+00
3.5000000000e-01 1.0000000000e-02 0.0000000000e+00
3.6000000000e-01 1.0000000000e-02 0.0000000000e+00
3.7000000000e-01 1.0000000000e-02 0.0000000000e+00
3.8000000000e-01 1.0000000000e-02 0.0000000000e+00
3.9000000000e-01 1.0000000000e-02 0.0000000000e+00
4.0000000000e-01 1.0000000000e-02 0.0000000000e+00
4.1000000000e-01 1.0000000000e-02 0.0000000000e+00
4.2000000000e-01 1.0000000000e-02 0.0000000000e+00
4.3000000000e-01 1.0000000000e-02 0.0000000000e+00
4.4000000000e-01 1.0000000000e-02 0.0000000000e+00
4.5000000000e-01 1.0000000000e-02 0.0000000000e+00
4.6000000000e-01 1.0000000000e-02 0.0000000000e+00
4.7000000000e-01 1.0000000000e-02 0.0000000000e+00
4.8000000000e-01 1.0000000000e-02 0.0000000000e+00
4.9000000000e-01 1.0000000000e-02 0.0000000000e+00
5.0000000000e-01 1.0000000000e-02 0.0000000000e+00
5.1000000000e-01 1.0000000000e-02 0.0000000000e+00
5.2000000000e-01 1.0000000000e-02 0.0000000000e+00
5.3000000000e-01 1.0000000000e-02 0.0000000000e+00
5.4000000000e-01 1.0000000000e-02 0.0000000000e+00
5.5000000000e-01 1.0000000000e-02 0.0000000000e+00
5.6000000000e-01 1.0000000000e-02 0.0000000000e+00
5.7000000000e-01 1.0000000000e-02 0.0000000000e+00
5.8000000000e-01 1.0000000000e-02 0.0000000000e+00
5.9000000000e-01 1.0000000000e-02 0.0000000000e+00
6.0000000000e-01 1.0000000000e-02 0.0000000000e+00
6.1000000000e-01 1.0000000000e-02 0.0000000000e+00
6.2000000000e-01 1.0000000000e-02 0.0000000000e+00
6.3000000000e-01 1.0000000000e-02 0.0000000000e+00
6.4000000000e-01 1.0000000000e-02 0.0000000000e+00
6.5000000000e-01 1.0000000000e-02 0.0000000000e+00
6.6000000000e-01 1.0000000000e-02 0.0000000000e+00
6.7000000000e-01 1.0000000000e-02 0.0000000000e+00
6.8000000000e-01 1.0000000000e-02 0.0000000000e+00
6.9000000000e-01 1.0000000000e-02 0.0000000000e+00
7.0000000000e-01 1.0000000000e-02 0.0000000000e+00
7.1000000000e-01 1.0000000000e-02 0.0000000000e+00
7.2000000000e-01 1.0000000000e-02 0.0000000000e+00
7.3000000000e-01 1.0000000000e-02 0.0000000000e+00
7.4000000000e-01 1.0000000000e-02 0.0000000000e+00
7.5000000000e-01 1.0000000000e-02 0.0000000000e+00
7.6000000000e-01 1.0000000000e-02 0.0000000000e+00
7.7000000000e-01 1.0000000000e-02 0.0000000000e+00
7.8000000000e-01 1.0000000000e-02 0.0000000000e+00
7.9000000000e-01 1.0000000000e-02 0.0000000000e+00
8.0000000000e-01 1.0000000000e-02 0.0000000000e+00
8.1000000000e-01 1.0000000000e-02 0.0000000000e+00
8.2000000000e-01 1.0000000000e-02 0.0000000000e+00
8.3000000000e-01 1.0000000000e-02 0.0000000000e+00
8.4000000000e-01 1.0000000000e-02 0.0000000000e+00
8.5000000000e-01 1.0000000000e-02 0.0000000000e+00
8.6000000000e-01 1.0000000000e-02 0.0000000000e+00
8.7000000000e-01 1.0000000000e-02 0.0000000000e+00
8.8000000000e-01 1.0000000000e-02 0.0000000000e+00
8.9000000000e-01 1.0000000000e-02 0.0000000000e+00
9.0000000000e-01 1.0000000000e-02 0.0000000000e+00
9.1000000000e-01 1.0000000000e-02 0.0000000000e+00
9.2000000000e-01 1.0000000000e-02 0.0000000000e+00
[...]
CELL_DATA 10000

SCALARS massDensity float
LOOKUP_TABLE default
1.1950044486e+00
1.1951202936e+00
1.1952888754e+00
1.1955402903e+00
1.1958669052e+00
1.1962593118e+00
1.1967067246e+00
1.1971974591e+00
1.1977193604e+00
1.1982603005e+00
1.1988085789e+00
1.1993533439e+00
1.1998848762e+00
1.2003948614e+00
1.2008765078e+00
1.2013246448e+00
1.2017356773e+00
1.2021075306e+00
1.2024394830e+00
1.2027320097e+00
1.2029865534e+00
1.2032053301e+00
1.2033910953e+00
1.2035469646e+00
1.2036762183e+00
1.2037821684e+00
1.2038680226e+00
1.2039368082e+00
1.2039912960e+00
1.2040339750e+00
1.2040670250e+00
1.2040923275e+00
1.2041114691e+00
1.2041257735e+00
1.2041363198e+00
1.2041439812e+00
1.2041494480e+00
1.2041532637e+00
1.2041558455e+00
1.2041575142e+00
1.2041585097e+00
1.2041590125e+00
1.2041591548e+00
1.2041590350e+00
1.2041587241e+00
1.2041582754e+00
1.2041577280e+00
1.2041571126e+00
1.2041564532e+00
1.2041557707e+00
1.2041550838e+00
1.2041544110e+00
1.2041537710e+00
1.2041531840e+00
1.2041526725e+00
1.2041522609e+00
1.2041519776e+00
1.2041518542e+00
1.2041519270e+00
1.2041522365e+00
1.2041528297e+00
1.2041537579e+00
1.2041550811e+00
1.2041568644e+00
1.2041591830e+00
1.2041621185e+00
1.2041657639e+00
1.2041702200e+00
1.2041756005e+00
1.2041820277e+00
1.2041896385e+00
1.2041985793e+00
1.2042090121e+00
1.2042211088e+00
1.2042350575e+00
1.2042510552e+00
1.2042693141e+00
1.2042900518e+00
1.2043134954e+00
1.2043398678e+00
1.2043693877e+00
1.2044022485e+00
1.2044386116e+00
1.2044785758e+00
1.2045221613e+00
1.2045692697e+00
1.2046196608e+00
1.2046729078e+00
1.2047283747e+00
1.2047851761e+00
1.2048421669e+00
1.2048979160e+00
1.2049507126e+00
1.2049985484e+00
1.2050391235e+00
1.2050698114e+00
1.2050876460e+00
1.2050893225e+00
1.2050714516e+00
1.2052105038e+00
1.1951202936e+00
1.1952419333e+00
1.1954122546e+00
1.1956633780e+00
1.1959882047e+00
1.1963776879e+00
1.1968213511e+00
1.1973077114e+00
1.1978248227e+00
1.1983606896e+00
1.1989037716e+00
1.1994433106e+00
1.1999697113e+00
1.2004747209e+00
1.2009516375e+00
1.2013953228e+00
1.2018022385e+00
1.2021703164e+00
1.2024988629e+00
1.2027883392e+00
1.2030401939e+00
1.2032566150e+00
1.2034403493e+00
1.2035944770e+00
1.2037222620e+00
1.2038269796e+00
1.2039118186e+00
1.2039797721e+00
1.2040335934e+00
1.2040757421e+00
1.2041083839e+00
1.2041333765e+00
1.2041522963e+00
1.2041664486e+00
1.2041769060e+00
1.2041845279e+00
1.2041900008e+00
1.2041938581e+00
1.2041965151e+00
1.2041982853e+00
1.2041994074e+00
1.2042000566e+00
1.2042003644e+00
1.2042004248e+00
1.2042003081e+00
1.2042000637e+00
1.2041997293e+00
1.2041993319e+00
1.2041988934e+00
1.2041984305e+00
1.2041979585e+00
1.2041974912e+00
1.2041970421e+00
1.2041966256e+00
1.2041962569e+00
1.2041959532e+00
1.2041957332e+00
1.2041956188e+00
1.2041956336e+00
1.2041958056e+00
1.2041961651e+00
1.2041967479e+00
1.2041975922e+00
1.2041987433e+00
1.2042002493e+00
1.2042021667e+00
1.2042045553e+00
1.2042074845e+00
1.2042110277e+00
1.2042152693e+00
1.2042202984e+00
1.2042262164e+00
1.2042331305e+00
1.2042411617e+00
1.2042504380e+00
1.2042611035e+00
1.2042733100e+00
1.2042872265e+00
1.2043030298e+00
1.2043209116e+00
1.2043410657e+00
1.2043636909e+00
1.2043889708e+00
1.2044170687e+00
1.2044480972e+00
1.2044821032e+00
1.2045190258e+00
1.2045586744e+00
1.2046006814e+00
1.2046444818e+00
1.2046892733e+00
1.2047340127e+00
1.2047773988e+00
1.2048178984e+00
1.2048537652e+00
1.2048831141e+00
1.2049040114e+00
1.2049146938e+00
1.2049139486e+00
1.2050917022e+00
1.1952888754e+00
1.1954122546e+00
1.1955806534e+00
1.1958278477e+00
1.1961469990e+00
1.1965293741e+00
1.1969647423e+00
1.1974419219e+00
1.1979491909e+00
1.1984748364e+00
1.1990075142e+00
1.1995367126e+00
1.2000529902e+00
1.2005482868e+00
1.2010160006e+00
1.2014511220e+00
1.2018501563e+00
1.2022111016e+00
1.2025332575e+00
1.2028170992e+00
1.2030640315e+00
1.2032762194e+00
1.2034563437e+00
1.2036074412e+00
1.2037327018e+00
1.2038353502e+00
1.2039185045e+00
1.2039851098e+00
1.2040378579e+00
1.2040791691e+00
1.2041111597e+00
1.2041356577e+00
1.2041542027e+00
1.2041680798e+00
1.2041783352e+00
1.2041858160e+00
1.2041911904e+00
1.2041949852e+00
1.2041976036e+00
1.2041993560e+00
1.2042004732e+00
1.2042011295e+00
1.2042014511e+00
1.2042015323e+00
1.2042014398e+00
1.2042012238e+00
1.2042009197e+00
1.2042005550e+00
1.2042001499e+00
1.2041997216e+00
1.2041992842e+00
1.2041988512e+00
1.2041984357e+00
1.2041980512e+00
1.2041977125e+00
1.2041974353e+00
1.2041972380e+00
1.2041971403e+00
1.2041971655e+00
1.2041973387e+00
1.2041976897e+00
1.2041982501e+00
1.2041990576e+00
1.2042001523e+00
1.2042015811e+00
1.2042033940e+00
1.2042056488e+00
1.2042084069e+00
1.2042117390e+00
1.2042157197e+00
1.2042204341e+00
1.2042259722e+00
1.2042324363e+00
1.2042399350e+00
1.2042485915e+00
1.2042585378e+00
1.2042699238e+00
1.2042829104e+00
1.2042976799e+00
1.2043144262e+00
1.2043333628e+00
1.2043547086e+00
1.2043786885e+00
1.2044055102e+00
1.2044353535e+00
1.2044683335e+00
1.2045044775e+00
1.2045436767e+00
1.2045856555e+00
1.2046299230e+00
1.2046757509e+00
1.2047221433e+00
1.2047678472e+00
1.2048113663e+00
1.2048510299e+00
1.2048850825e+00
1.2049118611e+00
1.2049300435e+00
1.2049390669e+00
1.2051415805e+00
1.1955402903e+00
1.1956633780e+00
1.1958278477e+00
1.1960686321e+00
1.1963791421e+00
1.1967509018e+00
1.1971740494e+00
1.1976377121e+00
1.1981305664e+00
1.1986412057e+00
1.1991586628e+00
1.1996726908e+00
1.2001741645e+00
1.2006552187e+00
1.2011094809e+00
1.2015320537e+00
1.2019195774e+00
1.2022700813e+00
1.2025829148e+00
1.2028585184e+00
1.2030982810e+00
1.2033042884e+00
1.2034791642e+00
1.2036258440e+00
1.2037474416e+00
1.2038470775e+00
1.2039277920e+00
1.2039924358e+00
1.2040436326e+00
1.2040837243e+00
1.2041147737e+00
1.2041385488e+00
1.2041565507e+00
1.2041700210e+00
1.2041799804e+00
1.2041872464e+00
1.2041924719e+00
1.2041961637e+00
1.2041987169e+00
1.2042004292e+00
1.2042015274e+00
1.2042021778e+00
1.2042025054e+00
1.2042025991e+00
1.2042025259e+00
1.2042023325e+00
1.2042020546e+00
1.2042017176e+00
1.2042013421e+00
1.2042009438e+00
1.2042005370e+00
1.2042001341e+00
1.2041997478e+00
1.2041993911e+00
1.2041990776e+00
1.2041988228e+00
1.2041986434e+00
1.2041985587e+00
1.2041985897e+00
1.2041987609e+00
1.2041990990e+00
1.2041996350e+00
1.2042004024e+00
1.2042014403e+00
1.2042027902e+00
1.2042045005e+00
1.2042066225e+00
1.2042092152e+00
1.2042123410e+00
1.2042160711e+00
1.2042204808e+00
1.2042256556e+00
1.2042316866e+00
1.2042386772e+00
1.2042467390e+00
1.2042559998e+00
1.2042665995e+00
1.2042787001e+00
1.2042924800e+00
1.2043081447e+00
1.2043259176e+00
1.2043460468e+00
1.2043687885e+00
1.2043944036e+00
1.2044231287e+00
1.2044551566e+00
1.2044905927e+00
1.2045294205e+00
1.2045714482e+00
1.2046162717e+00
1.2046632295e+00
1.2047113875e+00
1.2047595304e+00
1.2048062003e+00
1.2048497560e+00
1.2048884990e+00
1.2049208359e+00
1.2049455327e+00
1.2049620002e+00
1.2051836126e+00
1.1958669052e+00
1.1959882047e+00
1.1961469990e+00
1.1963791421e+00
1.1966782414e+00
1.1970361885e+00
1.1974434662e+00
1.1978896764e+00
1.1983638890e+00
1.1988551904e+00
1.1993529873e+00
1.1998474774e+00
1.2003298393e+00
1.2007925566e+00
1.2012294605e+00
1.2016358834e+00
1.2020085608e+00
1.2023456342e+00
1.2026464510e+00
1.2029114656e+00
1.2031419927e+00
1.2033400630e+00
1.2035081831e+00
1.2036491956e+00
1.2037660817e+00
1.2038618575e+00
1.2039394355e+00
1.2040015689e+00
1.2040507713e+00
1.2040893039e+00
1.2041191420e+00
1.2041419930e+00
1.2041592934e+00
1.2041722426e+00
1.2041818164e+00
1.2041888053e+00
1.2041938320e+00
1.2041973879e+00
1.2041998486e+00
1.2042015034e+00
1.2042025672e+00
1.2042032026e+00
1.2042035267e+00
1.2042036276e+00
1.2042035672e+00
1.2042033923e+00
1.2042031356e+00
1.2042028227e+00
1.2042024724e+00
1.2042021005e+00
1.2042017200e+00
1.2042013434e+00
1.2042009822e+00
1.2042006490e+00
1.2042003569e+00
1.2042001200e+00
1.2041999547e+00
1.2041998784e+00
1.2041999117e+00
1.2042000767e+00
1.2042003992e+00
1.2042009071e+00
1.2042016329e+00
1.2042026113e+00
1.2042038826e+00
1.2042054897e+00
1.2042074819e+00
1.2042099112e+00
1.2042128373e+00
1.2042163229e+00
1.2042204393e+00
1.2042252622e+00
1.2042308776e+00
1.2042373780e+00
1.2042448700e+00
1.2042534708e+00
1.2042633180e+00
1.2042745666e+00
1.2042873999e+00
1.2043020261e+00
1.2043186874e+00
1.2043376518e+00
1.2043592156e+00
1.2043836835e+00
1.2044113573e+00
1.2044424986e+00
1.2044772986e+00
1.2045158248e+00
1.2045579766e+00
1.2046034283e+00
1.2046515915e+00
1.2047015816e+00
1.2047522195e+00
1.2048020556e+00
1.2048494461e+00
1.2048926625e+00
1.2049300630e+00
1.2049602928e+00
1.2049825045e+00
1.2052192830e+00
1.1962593118e+00
1.1963776879e+00
1.1965293741e+00
1.1967509018e+00
1.1970361885e+00
1.1973774561e+00
1.1977656867e+00
1.1981909261e+00
1.1986428213e+00
1.1991109246e+00
1.1995852047e+00
1.2000562727e+00
1.2005157823e+00
1.2009565266e+00
1.2013726808e+00
1.2017597586e+00
1.2021146950e+00
1.2024356870e+00
1.2027221503e+00
1.2029744916e+00
1.2031939931e+00
1.2033825685e+00
1.2035426287e+00
1.2036768648e+00
1.2037881341e+00
1.2038792961e+00
1.2039531382e+00
1.2040122717e+00
1.2040591007e+00
1.2040957695e+00
1.2041241673e+00
1.2041459122e+00
1.2041623785e+00
1.2041747018e+00
1.2041838164e+00
1.2041904693e+00
1.2041952580e+00
1.2041986455e+00
1.2042009931e+00
1.2042025724e+00
1.2042035910e+00
1.2042042006e+00
1.2042045153e+00
1.2042046163e+00
1.2042045647e+00
1.2042044031e+00
1.2042041642e+00
1.2042038711e+00
1.2042035427e+00
1.2042031931e+00
1.2042028355e+00
1.2042024810e+00
1.2042021413e+00
1.2042018277e+00
1.2042015528e+00
1.2042013301e+00
1.2042011746e+00
1.2042011033e+00
1.2042011347e+00
1.2042012903e+00
1.2042015933e+00
1.2042020709e+00
1.2042027519e+00
1.2042036700e+00
1.2042048609e+00
1.2042063659e+00
1.2042082284e+00
1.2042104983e+00
1.2042132278e+00
1.2042164764e+00
1.2042203067e+00
1.2042247900e+00
1.2042300021e+00
1.2042360305e+00
1.2042429710e+00
1.2042509371e+00
1.2042600572e+00
1.2042704868e+00
1.2042824068e+00
1.2042960359e+00
1.2043116272e+00
1.2043294767e+00
1.2043499125e+00
1.2043732910e+00
1.2043999709e+00
1.2044302896e+00
1.2044645164e+00
1.2045028081e+00
1.2045451472e+00
1.2045912893e+00
1.2046407089e+00
1.2046925679e+00
1.2047457041e+00
1.2047986595e+00
1.2048497446e+00
1.2048971531e+00
1.2049391100e+00
1.2049740616e+00
1.2050008249e+00
1.2052501021e+00
1.1967067246e+00
1.1968213511e+00
1.1969647423e+00
1.1971740494e+00
1.1974434662e+00
1.1977656867e+00
1.1981321445e+00
1.1985335029e+00
1.1989599363e+00
1.1994016498e+00
1.1998491221e+00
1.2002935578e+00
1.2007270293e+00
1.2011427962e+00
1.2015353164e+00
1.2019004099e+00
1.2022351462e+00
1.2025378684e+00
1.2028079942e+00
1.2030459428e+00
1.2032528991e+00
1.2034306964e+00
1.2035815891e+00
1.2037081372e+00
1.2038130201e+00
1.2038989508e+00
1.2039685462e+00
1.2040242807e+00
1.2040684117e+00
1.2041029705e+00
1.2041297302e+00
1.2041502237e+00
1.2041657398e+00
1.2041773552e+00
1.2041859445e+00
1.2041922170e+00
1.2041967308e+00
1.2041999266e+00
1.2042021405e+00
1.2042036322e+00
1.2042045937e+00
1.2042051709e+00
1.2042054686e+00
1.2042055657e+00
1.2042055175e+00
1.2042053661e+00
1.2042051407e+00
1.2042048644e+00
1.2042045539e+00
1.2042042236e+00
1.2042038849e+00
1.2042035493e+00
1.2042032271e+00
1.2042029295e+00
1.2042026681e+00
1.2042024557e+00
1.2042023064e+00
1.2042022360e+00
1.2042022622e+00
1.2042024046e+00
1.2042026855e+00
1.2042031293e+00
1.2042037638e+00
1.2042046190e+00
1.2042057292e+00
1.2042071309e+00
1.2042088656e+00
1.2042109770e+00
1.2042135145e+00
1.2042165301e+00
1.2042200827e+00
1.2042242341e+00
1.2042290558e+00
1.2042346248e+00
1.2042410323e+00
1.2042483819e+00
1.2042567996e+00
1.2042664351e+00
1.2042774738e+00
1.2042901380e+00
1.2043046991e+00
1.2043214740e+00
1.2043408299e+00
1.2043631678e+00
1.2043889097e+00
1.2044184620e+00
1.2044521767e+00
1.2044902930e+00
1.2045328782e+00
1.2045797611e+00
1.2046304757e+00
1.2046842182e+00
1.2047398318e+00
1.2047958272e+00
1.2048504453e+00
1.2049017623e+00
1.2049478377e+00
1.2049868798e+00
1.2050173909e+00
1.2052773554e+00
1.1971974591e+00
1.1973077114e+00
1.1974419219e+00
1.1976377121e+00
1.1978896764e+00
1.1981909261e+00
1.1985335029e+00
1.1989086204e+00
1.1993071580e+00
1.1997199012e+00
1.2001380188e+00
1.2005532336e+00
1.2009582022e+00
1.2013465742e+00
1.2017132299e+00
1.2020542190e+00
1.2023668543e+00
1.2026495511e+00
1.2029018071e+00
1.2031239850e+00
1.2033172244e+00
1.2034832150e+00
1.2036240882e+00
1.2037422169e+00
1.2038401232e+00
1.2039203267e+00
1.2039852854e+00
1.2040372991e+00
1.2040784865e+00
1.2041107351e+00
1.2041357087e+00
1.2041548312e+00
1.2041693121e+00
1.2041801502e+00
1.2041881674e+00
1.2041940204e+00
1.2041982345e+00
1.2042012165e+00
1.2042032839e+00
1.2042046751e+00
1.2042055728e+00
1.2042061097e+00
1.2042063865e+00
1.2042064741e+00
1.2042064265e+00
1.2042062809e+00
1.2042060663e+00
1.2042058029e+00
1.2042055076e+00
1.2042051927e+00
1.2042048701e+00
1.2042045496e+00
1.2042042417e+00
1.2042039564e+00
1.2042037050e+00
1.2042034992e+00
1.2042033525e+00
1.2042032796e+00
1.2042032969e+00
1.2042034231e+00
1.2042036784e+00
1.2042040860e+00
1.2042046710e+00
1.2042054620e+00
1.2042064895e+00
1.2042077882e+00
1.2042093945e+00
1.2042113497e+00
1.2042136970e+00
1.2042164848e+00
1.2042197640e+00
1.2042235924e+00
1.2042280317e+00
1.2042331542e+00
1.2042390413e+00
1.2042457922e+00
1.2042535254e+00
1.2042623905e+00
1.2042725718e+00
1.2042843019e+00
1.2042978642e+00
1.2043136034e+00
1.2043319195e+00
1.2043532643e+00
1.2043781176e+00
1.2044069587e+00
1.2044402171e+00
1.2044782156e+00
1.2045211005e+00
1.2045687706e+00
1.2046208113e+00
1.2046764437e+00
1.2047345043e+00
1.2047934562e+00
1.2048514510e+00
1.2049064297e+00
1.2049562659e+00
1.2049989360e+00
1.2050326472e+00
1.2053020811e+00
1.1977193604e+00
1.1978248227e+00
1.1979491909e+00
1.1981305664e+00
1.1983638890e+00
1.1986428213e+00
1.1989599363e+00
1.1993071580e+00
1.1996759818e+00
1.2000579451e+00
1.2004448128e+00
1.2008289921e+00
1.2012036301e+00
1.2015629135e+00
1.2019020551e+00
1.2022174557e+00
1.2025065875e+00
1.2027680315e+00
1.2030012894e+00
1.2032067346e+00
1.2033853950e+00
1.2035388632e+00
1.2036690899e+00
1.2037782926e+00
1.2038687875e+00
1.2039429218e+00
1.2040029558e+00
1.2040510289e+00
1.2040890897e+00
1.2041188932e+00
1.2041419693e+00
1.2041596417e+00
1.2041730217e+00
1.2041830384e+00
1.2041904457e+00
1.2041958555e+00
1.2041997483e+00
1.2042025041e+00
1.2042044124e+00
1.2042056969e+00
1.2042065227e+00
1.2042070158e+00
1.2042072661e+00
1.2042073418e+00
1.2042072904e+00
1.2042071484e+00
1.2042069408e+00
1.2042066880e+00
1.2042064042e+00
1.2042061023e+00
1.2042057922e+00
1.2042054840e+00
1.2042051868e+00
1.2042049106e+00
1.2042046655e+00
1.2042044631e+00
1.2042043154e+00
1.2042042365e+00
1.2042042417e+00
1.2042043481e+00
1.2042045750e+00
1.2042049433e+00
1.2042054768e+00
1.2042062010e+00
1.2042071449e+00
1.2042083390e+00
1.2042098176e+00
1.2042116166e+00
1.2042137763e+00
1.2042163384e+00
1.2042193497e+00
1.2042228596e+00
1.2042269252e+00
1.2042316092e+00
1.2042369882e+00
1.2042431526e+00
1.2042502182e+00
1.2042583301e+00
1.2042676768e+00
1.2042784962e+00
1.2042910899e+00
1.2043058252e+00
1.2043231407e+00
1.2043435345e+00
1.2043675480e+00
1.2043957297e+00
1.2044285877e+00
1.2044665246e+00
1.2045097626e+00
1.2045582657e+00
1.2046116627e+00
1.2046691929e+00
1.2047296721e+00
1.2047915069e+00
1.2048527450e+00
1.2049111821e+00
1.2049645045e+00
1.2050104611e+00
1.2050470083e+00
1.2053250743e+00
1.1982603005e+00
1.1983606896e+00
1.1984748364e+00
1.1986412057e+00
1.1988551904e+00
1.1991109246e+00
1.1994016498e+00
1.1997199012e+00
1.2000579451e+00
1.2004079617e+00
1.2007624699e+00
1.2011144507e+00
1.2014576894e+00
1.2017868046e+00
1.2020974695e+00
1.2023863402e+00
1.2026511521e+00
1.2028905676e+00
1.2031041725e+00
1.2032922790e+00
1.2034558625e+00
1.2035963581e+00
1.2037155786e+00
1.2038155364e+00
1.2038983726e+00
1.2039662221e+00
1.2040211696e+00
1.2040651624e+00
1.2040999959e+00
1.2041272674e+00
1.2041483862e+00
1.2041645562e+00
1.2041768014e+00
1.2041859660e+00
1.2041927452e+00
1.2041976937e+00
1.2042012558e+00
1.2042037747e+00
1.2042055190e+00
1.2042066896e+00
1.2042074410e+00
1.2042078852e+00
1.2042081072e+00
1.2042081668e+00
1.2042081100e+00
1.2042079679e+00
1.2042077655e+00
1.2042075198e+00
1.2042072455e+00
1.2042069530e+00
1.2042066528e+00
1.2042063534e+00
1.2042060641e+00
1.2042057936e+00
1.2042055518e+00
1.2042053491e+00
1.2042051973e+00
1.2042051090e+00
1.2042050988e+00
1.2042051824e+00
1.2042053775e+00
1.2042057040e+00
1.2042061830e+00
1.2042068387e+00
1.2042076967e+00
1.2042087856e+00
1.2042101352e+00
1.2042117791e+00
1.2042137514e+00
1.2042160905e+00
1.2042188360e+00
1.2042220328e+00
1.2042257291e+00
1.2042299828e+00
1.2042348611e+00
1.2042404505e+00
1.2042468599e+00
1.2042542346e+00
1.2042627634e+00
1.2042726946e+00
1.2042843439e+00
1.2042981065e+00
1.2043144560e+00
1.2043339405e+00
1.2043571608e+00
1.2043847358e+00
1.2044172499e+00
1.2044551829e+00
1.2044988309e+00
1.2045482151e+00
1.2046030048e+00
1.2046624448e+00
1.2047253267e+00
1.2047899856e+00
1.2048543616e+00
1.2049160982e+00
1.2049726962e+00
1.2050216943e+00
1.2050608193e+00
1.2053469444e+00
1.1988085789e+00
1.1989037716e+00
1.1990075142e+00
1.1991586628e+00
1.1993529873e+00
1.1995852047e+00
1.1998491221e+00
1.2001380188e+00
1.2004448128e+00
1.2007624699e+00
1.2010841387e+00
1.2014035139e+00
1.2017148988e+00
1.2020134717e+00
1.2022952569e+00
1.2025572750e+00
1.2027974299e+00
1.2030145544e+00
1.2032082394e+00
1.2033788056e+00
1.2035271112e+00
1.2036544873e+00
1.2037625575e+00
1.2038531693e+00
1.2039282481e+00
1.2039897468e+00
1.2040395429e+00
1.2040794147e+00
1.2041109797e+00
1.2041356956e+00
1.2041548316e+00
1.2041694864e+00
1.2041805813e+00
1.2041888872e+00
1.2041950285e+00
1.2041995126e+00
1.2042027374e+00
1.2042050179e+00
1.2042065934e+00
1.2042076494e+00
1.2042083224e+00
1.2042087169e+00
1.2042089070e+00
1.2042089497e+00
1.2042088839e+00
1.2042087405e+00
1.2042085400e+00
1.2042082997e+00
1.2042080314e+00
1.2042077463e+00
1.2042074527e+00
1.2042071597e+00
1.2042068748e+00
1.2042066072e+00
1.2042063653e+00
1.2042061593e+00
1.2042059999e+00
1.2042058991e+00
1.2042058702e+00
1.2042059278e+00
1.2042060884e+00
1.2042063698e+00
1.2042067920e+00
1.2042073765e+00
1.2042081470e+00
1.2042091286e+00
1.2042103489e+00
1.2042118363e+00
1.2042136223e+00
1.2042157387e+00
1.2042182211e+00
1.2042211064e+00
1.2042244382e+00
1.2042282653e+00
1.2042326502e+00
1.2042376713e+00
1.2042434351e+00
1.2042500835e+00
1.2042578101e+00
1.2042668705e+00
1.2042775991e+00
1.2042904162e+00
1.2043058343e+00
1.2043244500e+00
1.2043469248e+00
1.2043739475e+00
1.2044061766e+00
1.2044441689e+00
1.2044882869e+00
1.2045386092e+00
1.2045948329e+00
1.2046562081e+00
1.2047214864e+00
1.2047889320e+00
1.2048563651e+00
1.2049212799e+00
1.2049809944e+00
1.2050328480e+00
1.2050743686e+00
1.2053681351e+00
1.1993533439e+00
1.1994433106e+00
1.1995367126e+00
1.1996726908e+00
1.1998474774e+00
1.2000562727e+00
1.2002935578e+00
1.2005532336e+00
1.2008289921e+00
1.2011144507e+00
1.2014035139e+00
1.2016904574e+00
1.2019702230e+00
1.2022384263e+00
1.2024915510e+00
1.2027268761e+00
1.2029425672e+00
1.2031375394e+00
1.2033114657e+00
1.2034646051e+00
1.2035977609e+00
1.2037121057e+00
1.2038091227e+00
1.2038904532e+00
1.2039578451e+00
1.2040130380e+00
1.2040577320e+00
1.2040935123e+00
1.2041218418e+00
1.2041440202e+00
1.2041611948e+00
1.2041743445e+00
1.2041843024e+00
1.2041917543e+00
1.2041972658e+00
1.2042012870e+00
1.2042041792e+00
1.2042062206e+00
1.2042076297e+00
1.2042085692e+00
1.2042091649e+00
1.2042095071e+00
1.2042096655e+00
1.2042096883e+00
1.2042096132e+00
1.2042094653e+00
1.2042092655e+00
1.2042090273e+00
1.2042087635e+00
1.2042084825e+00
1.2042081934e+00
1.2042079034e+00
1.2042076206e+00
1.2042073524e+00
1.2042071076e+00
1.2042068951e+00
1.2042067250e+00
1.2042066084e+00
1.2042065576e+00
1.2042065861e+00
1.2042067089e+00
1.2042069426e+00
1.2042073051e+00
1.2042078161e+00
1.2042084965e+00
1.2042093694e+00
1.2042104582e+00
1.2042117888e+00
1.2042133872e+00
1.2042152815e+00
1.2042175005e+00
1.2042200766e+00