# vtk DataFile Version 2.0
Blank
ASCII
DATASET STRUCTURED_GRID
DIMENSIONS 101 101 2
POINTS 20402 float
0.0000000000e+00 0.0000000000e+00 0.0000000000e+00
1.0000000000e-02 0.0000000000e+00 0.0000000000e+00
2.0000000000e-02 0.0000000000e+00 0.0000000000e+00
3.0000000000e-02 0.0000000000e+00 0.0000000000e+00
4.0000000000e-02 0.0000000000e+00 0.0000000000e+00
5.0000000000e-02 0.0000000000e+00 0.0000000000e+00
6.0000000000e-02 0.0000000000e+00 0.0000000000e+00
7.0000000000e-02 0.0000000000e+00 0.0000000000e+00
8.0000000000e-02 0.0000000000e+00 0.0000000000e+00
9.0000000000e-02 0.0000000000e+00 0.0000000000e+00
1.0000000000e-01 0.0000000000e+00 0.0000000000e+00
1.1000000000e-01 0.0000000000e+00 0.0000000000e+00
1.2000000000e-01 0.0000000000e+00 0.0000000000e+00
1.3000000000e-01 0.0000000000e+00 0.0000000000e+00
1.4000000000e-01 0.0000000000e+00 0.0000000000e+00
1.5000000000e-01 0.0000000000e+00 0.0000000000e+00
1.6000000000e-01 0.0000000000e+00 0.0000000000e+00
1.7000000000e-01 0.0000000000e+00 0.0000000000e+00
1.8000000000e-01 0.0000000000e+00 0.0000000000e+00
1.9000000000e-01 0.0000000000e+00 0.0000000000e+00
2.0000000000e-01 0.0000000000e+00 0.0000000000e+00
2.1000000000e-01 0.0000000000e+00 0.0000000000e+00
2.2000000000e-01 0.0000000000e+00 0.0000000000e+00
2.3000000000e-01 0.0000000000e+00 0.0000000000e+00
2.4000000000e-01 0.0000000000e+00 0.0000000000e+00
2.5000000000e-01 0.0000000000e+00 0.0000000000e+00
2.6000000000e-01 0.0000000000e+00 0.0000000000e+00
2.7000000000e-01 0.0000000000e+00 0.0000000000e+00
2.8000000000e-01 0.0000000000e+00 0.0000000000e+00
2.9000000000e-01 0.0000000000e+00 0.0000000000e+00
3.0000000000e-01 0.0000000000e+00 0.0000000000e+00
3.1000000000e-01 0.0000000000e+00 0.0000000000e+00
3.2000000000e-01 0.0000000000e+00 0.0000000000e+00
3.3000000000e-01 0.0000000000e+00 0.0000000000e+00
3.4000000000e-01 0.0000000000e+00 0.0000000000e+00
3.5000000000e-01 0.0000000000e+00 0.0000000000e+00
3.6000000000e-01 0.0000000000e+00 0.0000000000e+00
3.7000000000e-01 0.0000000000e+00 0.0000000000e+00
3.8000000000e-01 0.0000000000e+00 0.0000000000e+00
3.9000000000e-01 0.0000000000e+00 0.0000000000e+00
4.0000000000e-01 0.0000000000e+00 0.0000000000e+00
4.1000000000e-01 0.0000000000e+00 0.0000000000e+00
4.2000000000e-01 0.0000000000e+00 0.0000000000e+00
4.3000000000e-01 0.0000000000e+00 0.0000000000e+00
4.4000000000e-01 0.0000000000e+00 0.0000000000e+00
4.5000000000e-01 0.0000000000e+00 0.0000000000e+00
4.6000000000e-01 0.0000000000e+00 0.0000000000e+00
4.7000000000e-01 0.0000000000e+00 0.0000000000e+00
4.8000000000e-01 0.0000000000e+00 0.0000000000e+00
4.9000000000e-01 0.0000000000e+00 0.0000000000e+00
5.0000000000e-01 0.0000000000e+00 0.0000000000e+00
5.1000000000e-01 0.0000000000e+00 0.0000000000e+00
5.2000000000e-01 0.0000000000e+00 0.0000000000e+00
5.3000000000e-01 0.0000000000e+00 0.0000000000e+00
5.4000000000e-01 0.0000000000e+00 0.0000000000e+00
5.5000000000e-01 0.0000000000e+00 0.0000000000e+00
5.6000000000e-01 0.0000000000e+00 0.0000000000e+00
5.7000000000e-01 0.0000000000e+00 0.0000000000e+00
5.8000000000e-01 0.0000000000e+00 0.0000000000e+00
5.9000000000e-01 0.0000000000e+00 0.0000000000e+00
6.0000000000e-01 0.0000000000e+00 0.0000000000e+00
6.1000000000e-01 0.0000000000e+00 0.0000000000e+00
6.2000000000e-01 0.0000000000e+00 0.0000000000e+00
6.3000000000e-01 0.0000000000e+00 0.0000000000e+00
6.4000000000e-01 0.0000000000e+00 0.0000000000e+00
6.5000000000e-01 0.0000000000e+00 0.0000000000e+00
6.6000000000e-01 0.0000000000e+00 0.0000000000e+00
6.7000000000e-01 0.0000000000e+00 0.0000000000e+00
6.8000000000e-01 0.0000000000e+00 0.0000000000e+00
6.9000000000e-01 0.0000000000e+00 0.0000000000e+00
7.0000000000e-01 0.0000000000e+00 0.0000000000e+00
7.1000000000e-01 0.0000000000e+00 0.0000000000e+00
7.2000000000e-01 0.0000000000e+00 0.0000000000e+00
7.3000000000e-01 0.0000000000e+00 0.0000000000e+00
7.4000000000e-01 0.0000000000e+00 0.0000000000e+00
7.5000000000e-01 0.0000000000e+00 0.0000000000e+00
7.6000000000e-01 0.0000000000e+00 0.0000000000e+00
7.7000000000e-01 0.0000000000e+00 0.0000000000e+00
7.8000000000e-01 0.0000000000e+00 0.0000000000e+00
7.9000000000e-01 0.0000000000e+00 0.0000000000e+00
8.0000000000e-01 0.0000000000e+00 0.0000000000e+00
8.1000000000e-01 0.0000000000e+00 0.0000000000e+00
8.2000000000e-01 0.0000000000e+00 0.0000000000e+00
8.3000000000e-01 0.0000000000e+00 0.0000000000e+00
8.4000000000e-01 0.0000000000e+00 0.0000000000e+00
8.5000000000e-01 0.0000000000e+00 0.0000000000e+00
8.6000000000e-01 0.0000000000e+00 0.0000000000e+00
8.7000000000e-01 0.0000000000e+00 0.0000000000e+00
8.8000000000e-01 0.0000000000e+00 0.0000000000e+00
8.9000000000e-01 0.0000000000e+00 0.0000000000e+00
9.0000000000e-01 0.0000000000e+00 0.0000000000e+00
9.1000000000e-01 0.0000000000e+00 0.0000000000e+00
9.2000000000e-01 0.0000000000e+00 0.0000000000e+00
9.3000000000e-01 0.0000000000e+00 0.0000000000e+00
9.4000000000e-01 0.0000000000e+00 0.0000000000e+00
9.5000000000e-01 0.0000000000e+00 0.0000000000e+00
9.6000000000e-01 0.0000000000e+00 0.0000000000e+00
9.7000000000e-01 0.0000000000e+00 0.0000000000e+00
9.8000000000e-01 0.0000000000e+00 0.0000000000e+00
9.9000000000e-01 0.0000000000e+00 0.0000000000e+00
1.0000000000e+00 0.0000000000e+00 0.0000000000e+00
0.0000000000e+00 1.0000000000e-02 0.0000000000e+00
1.0000000000e-02 1.0000000000e-02 0.0000000000e+00
2.0000000000e-02 1.0000000000e-02 0.0000000000e+00
3.0000000000e-02 1.0000000000e-02 0.0000000000e+00
4.0000000000e-02 1.0000000000e-02 0.0000000000e+00
5.0000000000e-02 1.0000000000e-02 0.0000000000e+00
6.0000000000e-02 1.0000000000e-02 0.0000000000e+00
7.0000000000e-02 1.0000000000e-02 0.0000000000e+00
8.0000000000e-02 1.0000000000e-02 0.0000000000e+00
9.0000000000e-02 1.0000000000e-02 0.0000000000e+00
1.0000000000e-01 1.0000000000e-02 0.0000000000e+00
1.1000000000e-01 1.0000000000e-02 0.0000000000e+00
1.2000000000e-01 1.0000000000e-02 0.0000000000e+00
1.3000000000e-01 1.0000000000e-02 0.0000000000e+00
1.4000000000e-01 1.0000000000e-02 0.0000000000e+00
1.5000000000e-01 1.0000000000e-02 0.0000000000e+00
1.6000000000e-01 1.0000000000e-02 0.0000000000e+00
1.7000000000e-01 1.0000000000e-02 0.0000000000e+00
1.8000000000e-01 1.0000000000e-02 0.0000000000e+00
1.9000000000e-01 1.0000000000e-02 0.0000000000e+00
2.0000000000e-01 1.0000000000e-02 0.0000000000e+00
2.1000000000e-01 1.0000000000e-02 0.0000000000e+00
2.2000000000e-01 1.0000000000e-02 0.0000000000e+00
2.3000000000e-01 1.0000000000e-02 0.0000000000e+00
2.4000000000e-01 1.0000000000e-02 0.0000000000e+00
2.5000000000e-01 1.0000000000e-02 0.0000000000e+00
2.6000000000e-01 1.0000000000e-02 0.0000000000e+00
2.7000000000e-01 1.0000000000e-02 0.0000000000e+00
2.8000000000e-01 1.0000000000e-02 0.0000000000e+00
2.9000000000e-01 1.0000000000e-02 0.0000000000e+00
3.0000000000e-01 1.0000000000e-02 0.0000000000e+00
3.1000000000e-01 1.0000000000e-02 0.0000000000e+00
3.2000000000e-01 1.0000000000e-02 0.0000000000e+00
3.3000000000e-01 1.0000000000e-02 0.0000000000e+00
3.4000000000e-01 1.0000000000e-02 0.0000000000e+00
3.5000000000e-01 1.0000000000e-02 0.0000000000e+00
3.6000000000e-01 1.0000000000e-02 0.0000000000e+00
3.7000000000e-01 1.0000000000e-02 0.0000000000e+00
3.8000000000e-01 1.0000000000e-02 0.0000000000e+00
3.9000000000e-01 1.0000000000e-02 0.0000000000e+00
4.0000000000e-01 1.0000000000e-02 0.0000000000e+00
4.1000000000e-01 1.0000000000e-02 0.0000000000e+00
4.2000000000e-01 1.0000000000e-02 0.0000000000e+00
4.3000000000e-01 1.0000000000e-02 0.0000000000e+00
4.4000000000e-01 1.0000000000e-02 0.0000000000e+00
4.5000000000e-01 1.0000000000e-02 0.0000000000e+00
4.6000000000e-01 1.0000000000e-02 0.0000000000e+00
4.7000000000e-01 1.0000000000e-02 0.0000000000e+00
4.8000000000e-01 1.0000000000e-02 0.0000000000e+00
4.9000000000e-01 1.0000000000e-02 0.0000000000e+00
5.0000000000e-01 1.0000000000e-02 0.0000000000e+00
5.1000000000e-01 1.0000000000e-02 0.0000000000e+00
5.2000000000e-01 1.0000000000e-02 0.0000000000e+00
5.3000000000e-01 1.0000000000e-02 0.0000000000e+00
5.4000000000e-01 1.0000000000e-02 0.0000000000e+00
5.5000000000e-01 1.0000000000e-02 0.0000000000e+00
5.6000000000e-01 1.0000000000e-02 0.0000000000e+00
5.7000000000e-01 1.0000000000e-02 0.0000000000e+00
5.8000000000e-01 1.0000000000e-02 0.0000000000e+00
5.9000000000e-01 1.0000000000e-02 0.0000000000e+00
6.0000000000e-01 1.0000000000e-02 0.0000000000e+00
6.1000000000e-01 1.0000000000e-02 0.0000000000e+00
6.2000000000e-01 1.0000000000e-02 0.0000000000e+00
6.3000000000e-01 1.0000000000e-02 0.0000000000e+00
6.4000000000e-01 1.0000000000e-02 0.0000000000e+00
6.5000000000e-01 1.0000000000e-02 0.0000000000e+00
6.6000000000e-01 1.0000000000e-02 0.0000000000e+00
6.7000000000e-01 1.0000000000e-02 0.0000000000e+00
6.8000000000e-01 1.0000000000e-02 0.0000000000e+00
6.9000000000e-01 1.0000000000e-02 0.0000000000e+00
7.0000000000e-01 1.0000000000e-02 0.0000000000e+00
7.1000000000e-01 1.0000000000e-02 0.0000000000e+00
7.2000000000e-01 1.0000000000e-02 0.0000000000e+00
7.3000000000e-01 1.0000000000e-02 0.0000000000e+00
7.4000000000e-01 1.0000000000e-02 0.0000000000e+00
7.5000000000e-01 1.0000000000e-02 0.0000000000e+00
7.6000000000e-01 1.0000000000e-02 0.0000000000e+00
7.7000000000e-01 1.0000000000e-02 0.0000000000e+00
7.8000000000e-01 1.0000000000e-02 0.0000000000e+00
7.9000000000e-01 1.0000000000e-02 0.0000000000e+00
8.0000000000e-01 1.0000000000e-02 0.0000000000e+00
8.1000000000e-01 1.0000000000e-02 0.0000000000e+00
8.2000000000e-01 1.0000000000e-02 0.0000000000e+00
8.3000000000e-01 1.0000000000e-02 0.0000000000e+00
8.4000000000e-01 1.0000000000e-02 0.0000000000e+00
8.5000000000e-01 1.0000000000e-02 0.0000000000e+00
8.6000000000e-01 1.0000000000e-02 0.0000000000e+00
8.7000000000e-01 1.0000000000e-02 0.0000000000e+00
8.8000000000e-01 1.0000000000e-02 0.0000000000e+00
8.9000000000e-01 1.0000000000e-02 0.0000000000e+00
9.0000000000e-01 1.0000000000e-02 0.0000000000e+00
9.1000000000e-01 1.0000000000e-02 0.0000000000e+00
9.2000000000e-01 1.0000000000e-02 0.0000000000e+00
[...]
CELL_DATA 10000

SCALARS massDensity float
LOOKUP_TABLE default
1.1956098334e+00
1.1957112079e+00
1.1958591275e+00
1.1960800763e+00
1.1963677379e+00
1.1967143064e+00
1.1971107988e+00
1.1975474279e+00
1.1980139410e+00
1.1985000163e+00
1.1989955881e+00
1.1994911955e+00
1.1999782259e+00
1.2004491551e+00
1.2008976679e+00
1.2013187636e+00
1.2017087483e+00
1.2020652164e+00
1.2023869383e+00
1.2026737541e+00
1.2029263996e+00
1.2031463569e+00
1.2033356656e+00
1.2034967722e+00
1.2036323617e+00
1.2037452365e+00
1.2038381895e+00
1.2039139253e+00
1.2039749805e+00
1.2040236874e+00
1.2040621361e+00
1.2040921717e+00
1.2041153863e+00
1.2041331378e+00
1.2041465599e+00
1.2041565904e+00
1.2041639890e+00
1.2041693673e+00
1.2041732066e+00
1.2041758853e+00
1.2041776930e+00
1.2041788525e+00
1.2041795300e+00
1.2041798512e+00
1.2041799076e+00
1.2041797676e+00
1.2041794805e+00
1.2041790830e+00
1.2041786016e+00
1.2041780570e+00
1.2041774647e+00
1.2041768379e+00
1.2041761877e+00
1.2041755247e+00
1.2041748595e+00
1.2041742028e+00
1.2041735668e+00
1.2041729644e+00
1.2041724108e+00
1.2041719227e+00
1.2041715202e+00
1.2041712254e+00
1.2041710650e+00
1.2041710693e+00
1.2041712750e+00
1.2041717242e+00
1.2041724688e+00
1.2041735691e+00
1.2041750999e+00
1.2041771495e+00
1.2041798265e+00
1.2041832598e+00
1.2041876055e+00
1.2041930460e+00
1.2041997965e+00
1.2042081009e+00
1.2042182355e+00
1.2042304989e+00
1.2042452096e+00
1.2042626889e+00
1.2042832498e+00
1.2043071721e+00
1.2043346850e+00
1.2043659364e+00
1.2044009735e+00
1.2044397135e+00
1.2044819278e+00
1.2045272197e+00
1.2045750181e+00
1.2046245626e+00
1.2046749031e+00
1.2047248861e+00
1.2047731478e+00
1.2048180863e+00
1.2048578370e+00
1.2048902305e+00
1.2049127829e+00
1.2049227503e+00
1.2049174266e+00
1.2050520563e+00
1.1957112079e+00
1.1958176961e+00
1.1959672266e+00
1.1961880519e+00
1.1964743120e+00
1.1968185090e+00
1.1972119181e+00
1.1976449206e+00
1.1981074351e+00
1.1985892494e+00
1.1990804287e+00
1.1995715904e+00
1.2000542247e+00
1.2005208610e+00
1.2009652604e+00
1.2013824532e+00
1.2017687963e+00
1.2021218940e+00
1.2024405448e+00
1.2027245814e+00
1.2029747491e+00
1.2031925104e+00
1.2033799013e+00
1.2035393414e+00
1.2036735045e+00
1.2037851635e+00
1.2038770967e+00
1.2039519802e+00
1.2040123362e+00
1.2040604717e+00
1.2040984642e+00
1.2041281378e+00
1.2041510751e+00
1.2041686171e+00
1.2041818911e+00
1.2041918220e+00
1.2041991655e+00
1.2042045237e+00
1.2042083759e+00
1.2042110932e+00
1.2042129646e+00
1.2042142076e+00
1.2042149883e+00
1.2042154284e+00
1.2042156196e+00
1.2042156273e+00
1.2042155006e+00
1.2042152738e+00
1.2042149730e+00
1.2042146167e+00
1.2042142194e+00
1.2042137920e+00
1.2042133442e+00
1.2042128838e+00
1.2042124190e+00
1.2042119577e+00
1.2042115082e+00
1.2042110798e+00
1.2042106828e+00
1.2042103291e+00
1.2042100319e+00
1.2042098074e+00
1.2042096734e+00
1.2042096522e+00
1.2042097690e+00
1.2042100555e+00
1.2042105487e+00
1.2042112952e+00
1.2042123502e+00
1.2042137835e+00
1.2042156776e+00
1.2042181356e+00
1.2042212780e+00
1.2042252504e+00
1.2042302189e+00
1.2042363752e+00
1.2042439284e+00
1.2042531055e+00
1.2042641377e+00
1.2042772552e+00
1.2042926673e+00
1.2043105521e+00
1.2043310330e+00
1.2043541673e+00
1.2043799237e+00
1.2044081753e+00
1.2044386844e+00
1.2044711045e+00
1.2045049748e+00
1.2045397304e+00
1.2045747038e+00
1.2046091378e+00
1.2046421862e+00
1.2046729251e+00
1.2047003543e+00
1.2047234274e+00
1.2047411054e+00
1.2047525191e+00
1.2047573028e+00
1.2049176775e+00
1.1958591275e+00
1.1959672266e+00
1.1961152426e+00
1.1963328722e+00
1.1966144707e+00
1.1969527953e+00
1.1973393199e+00
1.1977646670e+00
1.1982189352e+00
1.1986921390e+00
1.1991745034e+00
1.1996568467e+00
1.2001307884e+00
1.2005890197e+00
1.2010253906e+00
1.2014350451e+00
1.2018143853e+00
1.2021610804e+00
1.2024739334e+00
1.2027527989e+00
1.2029983951e+00
1.2032121744e+00
1.2033961245e+00
1.2035526349e+00
1.2036843218e+00
1.2037939190e+00
1.2038841465e+00
1.2039576410e+00
1.2040168718e+00
1.2040641114e+00
1.2041013934e+00
1.2041305146e+00
1.2041530232e+00
1.2041702408e+00
1.2041832690e+00
1.2041930203e+00
1.2042002319e+00
1.2042054985e+00
1.2042092869e+00
1.2042119645e+00
1.2042138117e+00
1.2042150445e+00
1.2042158235e+00
1.2042162702e+00
1.2042164724e+00
1.2042164962e+00
1.2042163879e+00
1.2042161827e+00
1.2042159050e+00
1.2042155738e+00
1.2042152024e+00
1.2042148023e+00
1.2042143822e+00
1.2042139503e+00
1.2042135141e+00
1.2042130813e+00
1.2042126600e+00
1.2042122591e+00
1.2042118886e+00
1.2042115594e+00
1.2042112850e+00
1.2042110801e+00
1.2042109629e+00
1.2042109540e+00
1.2042110794e+00
1.2042113692e+00
1.2042118616e+00
1.2042126021e+00
1.2042136484e+00
1.2042150700e+00
1.2042169537e+00
1.2042194035e+00
1.2042225461e+00
1.2042265291e+00
1.2042315256e+00
1.2042377286e+00
1.2042453521e+00
1.2042546203e+00
1.2042657625e+00
1.2042789963e+00
1.2042945169e+00
1.2043124753e+00
1.2043329655e+00
1.2043560028e+00
1.2043815144e+00
1.2044093252e+00
1.2044391580e+00
1.2044706308e+00
1.2045032696e+00
1.2045365166e+00
1.2045697513e+00
1.2046023032e+00
1.2046334757e+00
1.2046625594e+00
1.2046888647e+00
1.2047117580e+00
1.2047307507e+00
1.2047456507e+00
1.2047568511e+00
1.2049312653e+00
1.1960800763e+00
1.1961880519e+00
1.1963328722e+00
1.1965452427e+00
1.1968197145e+00
1.1971492489e+00
1.1975256115e+00
1.1979396709e+00
1.1983818429e+00
1.1988423884e+00
1.1993118372e+00
1.1997812255e+00
1.2002424345e+00
1.2006883228e+00
1.2011129381e+00
1.2015115288e+00
1.2018806221e+00
1.2022179278e+00
1.2025223058e+00
1.2027935964e+00
1.2030325190e+00
1.2032404725e+00
1.2034194077e+00
1.2035716382e+00
1.2036997228e+00
1.2038063121e+00
1.2038940633e+00
1.2039655335e+00
1.2040231340e+00
1.2040690685e+00
1.2041053225e+00
1.2041336378e+00
1.2041555263e+00
1.2041722682e+00
1.2041849398e+00
1.2041944239e+00
1.2042014417e+00
1.2042065675e+00
1.2042102588e+00
1.2042128693e+00
1.2042146746e+00
1.2042158820e+00
1.2042166499e+00
1.2042170941e+00
1.2042173022e+00
1.2042173362e+00
1.2042172431e+00
1.2042170553e+00
1.2042167979e+00
1.2042164883e+00
1.2042161403e+00
1.2042157643e+00
1.2042153692e+00
1.2042149626e+00
1.2042145521e+00
1.2042141448e+00
1.2042137486e+00
1.2042133719e+00
1.2042130243e+00
1.2042127167e+00
1.2042124612e+00
1.2042122729e+00
1.2042121685e+00
1.2042121691e+00
1.2042122990e+00
1.2042125893e+00
1.2042130768e+00
1.2042138087e+00
1.2042148420e+00
1.2042162492e+00
1.2042181177e+00
1.2042205562e+00
1.2042236933e+00
1.2042276830e+00
1.2042327008e+00
1.2042389459e+00
1.2042466330e+00
1.2042559888e+00
1.2042672369e+00
1.2042805889e+00
1.2042962230e+00
1.2043142708e+00
1.2043347953e+00
1.2043577786e+00
1.2043831063e+00
1.2044105645e+00
1.2044398367e+00
1.2044705157e+00
1.2045021142e+00
1.2045340907e+00
1.2045658686e+00
1.2045968675e+00
1.2046265241e+00
1.2046543232e+00
1.2046798219e+00
1.2047026954e+00
1.2047227942e+00
1.2047402550e+00
1.2047556435e+00
1.2049386065e+00
1.1963677379e+00
1.1964743120e+00
1.1966144707e+00
1.1968197145e+00
1.1970847447e+00
1.1974028092e+00
1.1977659455e+00
1.1981653971e+00
1.1985918936e+00
1.1990360910e+00
1.1994888229e+00
1.1999414894e+00
1.2003862265e+00
1.2008161875e+00
1.2012256006e+00
1.2016099191e+00
1.2019657669e+00
1.2022909661e+00
1.2025843945e+00
1.2028459241e+00
1.2030762301e+00
1.2032766822e+00
1.2034491470e+00
1.2035958718e+00
1.2037193119e+00
1.2038220361e+00
1.2039065964e+00
1.2039754686e+00
1.2040309691e+00
1.2040752306e+00
1.2041101602e+00
1.2041374435e+00
1.2041585317e+00
1.2041746644e+00
1.2041868737e+00
1.2041960149e+00
1.2042027787e+00
1.2042077224e+00
1.2042112828e+00
1.2042138043e+00
1.2042155489e+00
1.2042167194e+00
1.2042174654e+00
1.2042179011e+00
1.2042181083e+00
1.2042181490e+00
1.2042180663e+00
1.2042178934e+00
1.2042176528e+00
1.2042173624e+00
1.2042170347e+00
1.2042166803e+00
1.2042163073e+00
1.2042159234e+00
1.2042155355e+00
1.2042151508e+00
1.2042147766e+00
1.2042144211e+00
1.2042140934e+00
1.2042138038e+00
1.2042135643e+00
1.2042133889e+00
1.2042132944e+00
1.2042133006e+00
1.2042134323e+00
1.2042137190e+00
1.2042141988e+00
1.2042149178e+00
1.2042159351e+00
1.2042173231e+00
1.2042191727e+00
1.2042215940e+00
1.2042247208e+00
1.2042287096e+00
1.2042337422e+00
1.2042400202e+00
1.2042477634e+00
1.2042571975e+00
1.2042685458e+00
1.2042820111e+00
1.2042977612e+00
1.2043159066e+00
1.2043364867e+00
1.2043594504e+00
1.2043846495e+00
1.2044118320e+00
1.2044406500e+00
1.2044706704e+00
1.2045013997e+00
1.2045323080e+00
1.2045628644e+00
1.2045925646e+00
1.2046209655e+00
1.2046477073e+00
1.2046725434e+00
1.2046953614e+00
1.2047162221e+00
1.2047354005e+00
1.2047534359e+00
1.2049415092e+00
1.1967143064e+00
1.1968185090e+00
1.1969527953e+00
1.1971492489e+00
1.1974028092e+00
1.1977069819e+00
1.1980541960e+00
1.1984360469e+00
1.1988437236e+00
1.1992682568e+00
1.1997009360e+00
1.2001335025e+00
1.2005584877e+00
1.2009693111e+00
1.2013604993e+00
1.2017276746e+00
1.2020676478e+00
1.2023783100e+00
1.2026586204e+00
1.2029084339e+00
1.2031284215e+00
1.2033198738e+00
1.2034845947e+00
1.2036247168e+00
1.2037426022e+00
1.2038406931e+00
1.2039214402e+00
1.2039871991e+00
1.2040401923e+00
1.2040824491e+00
1.2041157987e+00
1.2041418446e+00
1.2041619789e+00
1.2041773799e+00
1.2041890382e+00
1.2041977657e+00
1.2042042264e+00
1.2042089479e+00
1.2042123512e+00
1.2042147612e+00
1.2042164315e+00
1.2042175523e+00
1.2042182693e+00
1.2042186887e+00
1.2042188911e+00
1.2042189333e+00
1.2042188586e+00
1.2042186967e+00
1.2042184707e+00
1.2042181963e+00
1.2042178867e+00
1.2042175510e+00
1.2042171978e+00
1.2042168337e+00
1.2042164659e+00
1.2042161009e+00
1.2042157459e+00
1.2042154086e+00
1.2042150977e+00
1.2042148232e+00
1.2042145964e+00
1.2042144310e+00
1.2042143428e+00
1.2042143518e+00
1.2042144814e+00
1.2042147618e+00
1.2042152298e+00
1.2042159329e+00
1.2042169295e+00
1.2042182945e+00
1.2042201194e+00
1.2042225184e+00
1.2042256271e+00
1.2042296078e+00
1.2042346450e+00
1.2042409463e+00
1.2042487332e+00
1.2042582348e+00
1.2042696716e+00
1.2042832425e+00
1.2042991034e+00
1.2043173502e+00
1.2043379982e+00
1.2043609700e+00
1.2043860842e+00
1.2044130574e+00
1.2044415106e+00
1.2044709905e+00
1.2045009939e+00
1.2045310047e+00
1.2045605272e+00
1.2045891259e+00
1.2046164532e+00
1.2046422782e+00
1.2046664991e+00
1.2046891577e+00
1.2047104389e+00
1.2047306773e+00
1.2047503294e+00
1.2049413498e+00
1.1971107988e+00
1.1972119181e+00
1.1973393199e+00
1.1975256115e+00
1.1977659455e+00
1.1980541960e+00
1.1983831480e+00
1.1987448856e+00
1.1991310194e+00
1.1995331058e+00
1.1999428503e+00
1.2003524828e+00
1.2007548875e+00
1.2011438808e+00
1.2015142410e+00
1.2018618657e+00
1.2021837021e+00
1.2024777903e+00
1.2027431178e+00
1.2029795778e+00
1.2031877839e+00
1.2033689825e+00
1.2035248644e+00
1.2036574676e+00
1.2037690146e+00
1.2038618323e+00
1.2039382296e+00
1.2040004475e+00
1.2040505809e+00
1.2040905592e+00
1.2041221066e+00
1.2041467472e+00
1.2041657926e+00
1.2041803631e+00
1.2041913911e+00
1.2041996494e+00
1.2042057614e+00
1.2042102307e+00
1.2042134512e+00
1.2042157340e+00
1.2042173154e+00
1.2042183783e+00
1.2042190577e+00
1.2042194566e+00
1.2042196486e+00
1.2042196898e+00
1.2042196190e+00
1.2042194661e+00
1.2042192514e+00
1.2042189913e+00
1.2042186968e+00
1.2042183778e+00
1.2042180415e+00
1.2042176950e+00
1.2042173445e+00
1.2042169966e+00
1.2042166580e+00
1.2042163361e+00
1.2042160392e+00
1.2042157767e+00
1.2042155597e+00
1.2042154010e+00
1.2042153164e+00
1.2042153246e+00
1.2042154494e+00
1.2042157196e+00
1.2042161729e+00
1.2042168556e+00
1.2042178279e+00
1.2042191645e+00
1.2042209598e+00
1.2042233290e+00
1.2042264126e+00
1.2042303748e+00
1.2042354062e+00
1.2042417172e+00
1.2042495343e+00
1.2042590874e+00
1.2042705982e+00
1.2042842604e+00
1.2043002227e+00
1.2043185661e+00
1.2043392875e+00
1.2043622841e+00
1.2043873471e+00
1.2044141629e+00
1.2044423262e+00
1.2044713623e+00
1.2045007608e+00
1.2045300128e+00
1.2045586543e+00
1.2045863029e+00
1.2046126919e+00
1.2046376888e+00
1.2046613066e+00
1.2046836939e+00
1.2047051208e+00
1.2047259431e+00
1.2047465461e+00
1.2049391529e+00
1.1975474279e+00
1.1976449206e+00
1.1977646670e+00
1.1979396709e+00
1.1981653971e+00
1.1984360469e+00
1.1987448856e+00
1.1990844350e+00
1.1994468703e+00
1.1998242179e+00
1.2002087464e+00
1.2005931163e+00
1.2009707019e+00
1.2013356569e+00
1.2016831294e+00
1.2020092321e+00
1.2023111427e+00
1.2025869907e+00
1.2028358614e+00
1.2030576294e+00
1.2032528989e+00
1.2034228192e+00
1.2035689989e+00
1.2036933340e+00
1.2037979268e+00
1.2038849473e+00
1.2039565744e+00
1.2040149002e+00
1.2040618993e+00
1.2040993734e+00
1.2041289469e+00
1.2041520425e+00
1.2041698962e+00
1.2041835528e+00
1.2041938915e+00
1.2042016320e+00
1.2042073630e+00
1.2042115523e+00
1.2042145730e+00
1.2042167127e+00
1.2042181964e+00
1.2042191922e+00
1.2042198294e+00
1.2042202018e+00
1.2042203809e+00
1.2042204168e+00
1.2042203481e+00
1.2042202009e+00
1.2042199960e+00
1.2042197471e+00
1.2042194660e+00
1.2042191610e+00
1.2042188396e+00
1.2042185080e+00
1.2042181726e+00
1.2042178392e+00
1.2042175144e+00
1.2042172052e+00
1.2042169195e+00
1.2042166663e+00
1.2042164561e+00
1.2042163014e+00
1.2042162171e+00
1.2042162218e+00
1.2042163381e+00
1.2042165953e+00
1.2042170297e+00
1.2042176888e+00
1.2042186318e+00
1.2042199355e+00
1.2042216945e+00
1.2042240273e+00
1.2042270759e+00
1.2042310097e+00
1.2042360217e+00
1.2042423279e+00
1.2042501574e+00
1.2042597440e+00
1.2042713087e+00
1.2042850439e+00
1.2043010906e+00
1.2043195196e+00
1.2043403104e+00
1.2043633395e+00
1.2043883728e+00
1.2044150704e+00
1.2044430019e+00
1.2044716738e+00
1.2045005657e+00
1.2045291748e+00
1.2045570595e+00
1.2045838820e+00
1.2046094380e+00
1.2046336764e+00
1.2046566961e+00
1.2046787301e+00
1.2047001061e+00
1.2047211967e+00
1.2047423327e+00
1.2049357046e+00
1.1980139410e+00
1.1981074351e+00
1.1982189352e+00
1.1983818429e+00
1.1985918936e+00
1.1988437236e+00
1.1991310194e+00
1.1994468703e+00
1.1997839475e+00
1.2001348876e+00
1.2004924495e+00
1.2008498617e+00
1.2012009153e+00
1.2015402250e+00
1.2018632375e+00
1.2021663844e+00
1.2024470060e+00
1.2027034028e+00
1.2029346955e+00
1.2031408001e+00
1.2033222551e+00
1.2034801549e+00
1.2036159764e+00
1.2037315024e+00
1.2038286725e+00
1.2039095189e+00
1.2039760555e+00
1.2040302382e+00
1.2040738929e+00
1.2041087028e+00
1.2041361698e+00
1.2041576230e+00
1.2041742043e+00
1.2041868901e+00
1.2041964919e+00
1.2042036829e+00
1.2042090054e+00
1.2042128977e+00
1.2042157026e+00
1.2042176905e+00
1.2042190670e+00
1.2042199912e+00
1.2042205802e+00
1.2042209237e+00
1.2042210856e+00
1.2042211148e+00
1.2042210449e+00
1.2042209021e+00
1.2042207039e+00
1.2042204649e+00
1.2042201946e+00
1.2042199018e+00
1.2042195928e+00
1.2042192741e+00
1.2042189511e+00
1.2042186300e+00
1.2042183164e+00
1.2042180174e+00
1.2042177402e+00
1.2042174936e+00
1.2042172875e+00
1.2042171338e+00
1.2042170471e+00
1.2042170451e+00
1.2042171502e+00
1.2042173906e+00
1.2042178031e+00
1.2042184339e+00
1.2042193437e+00
1.2042206084e+00
1.2042223252e+00
1.2042246130e+00
1.2042276175e+00
1.2042315100e+00
1.2042364887e+00
1.2042427724e+00
1.2042505950e+00
1.2042601923e+00
1.2042717878e+00
1.2042855716e+00
1.2043016808e+00
1.2043201763e+00
1.2043410247e+00
1.2043640837e+00
1.2043890978e+00
1.2044157033e+00
1.2044434474e+00
1.2044718180e+00
1.2045002852e+00
1.2045283477e+00
1.2045555821e+00
1.2045816841e+00
1.2046065018e+00
1.2046300466e+00
1.2046524891e+00
1.2046741270e+00
1.2046953371e+00
1.2047165057e+00
1.2047379348e+00
1.2049316237e+00
1.1985000163e+00
1.1985892494e+00
1.1986921390e+00
1.1988423884e+00
1.1990360910e+00
1.1992682568e+00
1.1995331058e+00
1.1998242179e+00
1.2001348876e+00
1.2004582767e+00
1.2007877657e+00
1.2011170643e+00
1.2014405039e+00
1.2017530773e+00
1.2020506379e+00
1.2023298588e+00
1.2025883327e+00
1.2028244615e+00
1.2030374714e+00
1.2032272587e+00
1.2033943489e+00
1.2035397293e+00
1.2036647833e+00
1.2037711366e+00
1.2038605932e+00
1.2039350120e+00
1.2039962609e+00
1.2040461308e+00
1.2040863134e+00
1.2041183500e+00
1.2041436315e+00
1.2041633745e+00
1.2041786367e+00
1.2041903110e+00
1.2041991495e+00
1.2042057669e+00
1.2042106666e+00
1.2042142479e+00
1.2042168296e+00
1.2042186572e+00
1.2042199228e+00
1.2042207698e+00
1.2042213087e+00
1.2042216193e+00
1.2042217629e+00
1.2042217821e+00
1.2042217099e+00
1.2042215687e+00
1.2042213762e+00
1.2042211444e+00
1.2042208835e+00
1.2042206004e+00
1.2042203021e+00
1.2042199938e+00
1.2042196814e+00
1.2042193699e+00
1.2042190654e+00
1.2042187739e+00
1.2042185028e+00
1.2042182601e+00
1.2042180554e+00
1.2042179001e+00
1.2042178080e+00
1.2042177965e+00
1.2042178871e+00
1.2042181078e+00
1.2042184943e+00
1.2042190934e+00
1.2042199646e+00
1.2042211853e+00
1.2042228523e+00
1.2042250871e+00
1.2042280363e+00
1.2042318751e+00
1.2042368040e+00
1.2042430464e+00
1.2042508394e+00
1.2042604226e+00
1.2042720208e+00
1.2042858247e+00
1.2043019678e+00
1.2043205045e+00
1.2043413902e+00
1.2043644675e+00
1.2043894624e+00
1.2044159906e+00
1.2044435790e+00
1.2044716985e+00
1.2044998088e+00
1.2045274087e+00
1.2045540871e+00
1.2045795676e+00
1.2046037385e+00
1.2046266646e+00
1.2046485733e+00
1.2046698182e+00
1.2046908172e+00
1.2047119755e+00
1.2047335807e+00
1.2049274146e+00
1.1989955881e+00
1.1990804287e+00
1.1991745034e+00
1.1993118372e+00
1.1994888229e+00
1.1997009360e+00
1.1999428503e+00
1.2002087464e+00
1.2004924495e+00
1.2007877657e+00
1.2010885991e+00
1.2013892585e+00
1.2016845205e+00
1.2019698636e+00
1.2022414599e+00
1.2024963179e+00
1.2027322042e+00
1.2029476993e+00
1.2031420677e+00
1.2033152471e+00
1.2034676941e+00
1.2036003355e+00
1.2037144156e+00
1.2038114382e+00
1.2038930351e+00
1.2039609179e+00
1.2040167797e+00
1.2040622661e+00
1.2040989114e+00
1.2041281308e+00
1.2041511856e+00
1.2041691925e+00
1.2041831102e+00
1.2041937585e+00
1.2042018182e+00
1.2042078545e+00
1.2042123219e+00
1.2042155883e+00
1.2042179407e+00
1.2042196062e+00
1.2042207566e+00
1.2042215255e+00
1.2042220109e+00
1.2042222881e+00
1.2042224105e+00
1.2042224191e+00
1.2042223421e+00
1.2042222016e+00
1.2042220124e+00
1.2042217867e+00
1.2042215326e+00
1.2042212580e+00
1.2042209679e+00
1.2042206684e+00
1.2042203640e+00
1.2042200602e+00
1.2042197621e+00
1.2042194761e+00
1.2042192085e+00
1.2042189673e+00
1.2042187614e+00
1.2042186018e+00
1.2042185016e+00
1.2042184776e+00
1.2042185508e+00
1.2042187483e+00
1.2042191055e+00
1.2042196683e+00
1.2042204965e+00
1.2042216669e+00
1.2042232774e+00
1.2042254496e+00
1.2042283328e+00
1.2042321033e+00
1.2042369655e+00
1.2042431455e+00
1.2042508845e+00
1.2042604252e+00
1.2042719952e+00
1.2042857859e+00
1.2043019292e+00
1.2043204751e+00
1.2043413705e+00
1.2043644464e+00
1.2043894127e+00
1.2044158684e+00
1.2044433223e+00
1.2044712305e+00
1.2044990422e+00
1.2045262551e+00
1.2045524670e+00
1.2045774230e+00
1.2046010453e+00
1.2046234417e+00
1.2046448886e+00
1.2046657862e+00
1.2046865908e+00
1.2047077276e+00
1.2047294829e+00
1.2049234937e+00
1.1994911955e+00
1.1995715904e+00
1.1996568467e+00
1.1997812255e+00
1.1999414894e+00
1.2001335025e+00
1.2003524828e+00
1.2005931163e+00
1.2008498617e+00
1.2011170643e+00
1.2013892585e+00
1.2016612467e+00
1.2019283533e+00
1.2021864436e+00
1.2024321016e+00
1.2026625829e+00
1.2028759088e+00
1.2030707637e+00
1.2032465171e+00
1.2034030874e+00
1.2035409156e+00
1.2036608198e+00
1.2037639475e+00
1.2038516425e+00
1.2039253975e+00
1.2039867476e+00
1.2040372366e+00
1.2040783422e+00
1.2041114613e+00
1.2041378652e+00
1.2041587016e+00
1.2041749731e+00
1.2041875523e+00
1.2041971744e+00
1.2042044596e+00
1.2042099137e+00
1.2042139517e+00
1.2042169017e+00
1.2042190267e+00
1.2042205282e+00
1.2042215645e+00
1.2042222533e+00
1.2042226858e+00
1.2042229273e+00
1.2042230285e+00
1.2042230243e+00
1.2042229421e+00
1.2042228000e+00
1.2042226132e+00
1.2042223913e+00
1.2042221432e+00
1.2042218744e+00
1.2042215913e+00
1.2042212981e+00
1.2042210000e+00
1.2042207015e+00
1.2042204080e+00
1.2042201248e+00
1.2042198585e+00
1.2042196163e+00
1.2042194067e+00
1.2042192401e+00
1.2042191292e+00
1.2042190899e+00
1.2042191426e+00
1.2042193138e+00
1.2042196379e+00
1.2042201605e+00
1.2042209405e+00
1.2042220548e+00
1.2042236010e+00
1.2042257016e+00