# vtk DataFile Version 2.0
Blank
ASCII
DATASET STRUCTURED_GRID
DIMENSIONS 101 101 2
POINTS 20402 float
0.0000000000e+00 0.0000000000e+00 0.0000000000e+00
1.0000000000e-02 0.0000000000e+00 0.0000000000e+00
2.0000000000e-02 0.0000000000e+00 0.0000000000e+00
3.0000000000e-02 0.0000000000e+00 0.0000000000e+00
4.0000000000e-02 0.0000000000e+00 0.0000000000e+00
5.0000000000e-02 0.0000000000e+00 0.0000000000e+00
6.0000000000e-02 0.0000000000e+00 0.0000000000e+00
7.0000000000e-02 0.0000000000e+00 0.0000000000e+00
8.0000000000e-02 0.0000000000e+00 0.0000000000e+00
9.0000000000e-02 0.0000000000e+00 0.0000000000e+00
1.0000000000e-01 0.0000000000e+00 0.0000000000e+00
1.1000000000e-01 0.0000000000e+00 0.0000000000e+00
1.2000000000e-01 0.0000000000e+00 0.0000000000e+00
1.3000000000e-01 0.0000000000e+00 0.0000000000e+00
1.4000000000e-01 0.0000000000e+00 0.0000000000e+00
1.5000000000e-01 0.0000000000e+00 0.0000000000e+00
1.6000000000e-01 0.0000000000e+00 0.0000000000e+00
1.7000000000e-01 0.0000000000e+00 0.0000000000e+00
1.8000000000e-01 0.0000000000e+00 0.0000000000e+00
1.9000000000e-01 0.0000000000e+00 0.0000000000e+00
2.0000000000e-01 0.0000000000e+00 0.0000000000e+00
2.1000000000e-01 0.0000000000e+00 0.0000000000e+00
2.2000000000e-01 0.0000000000e+00 0.0000000000e+00
2.3000000000e-01 0.0000000000e+00 0.0000000000e+00
2.4000000000e-01 0.0000000000e+00 0.0000000000e+00
2.5000000000e-01 0.0000000000e+00 0.0000000000e+00
2.6000000000e-01 0.0000000000e+00 0.0000000000e+00
2.7000000000e-01 0.0000000000e+00 0.0000000000e+00
2.8000000000e-01 0.0000000000e+00 0.0000000000e+00
2.9000000000e-01 0.0000000000e+00 0.0000000000e+00
3.0000000000e-01 0.0000000000e+00 0.0000000000e+00
3.1000000000e-01 0.0000000000e+00 0.0000000000e+00
3.2000000000e-01 0.0000000000e+00 0.0000000000e+00
3.3000000000e-01 0.0000000000e+00 0.0000000000e+00
3.4000000000e-01 0.0000000000e+00 0.0000000000e+00
3.5000000000e-01 0.0000000000e+00 0.0000000000e+00
3.6000000000e-01 0.0000000000e+00 0.0000000000e+00
3.7000000000e-01 0.0000000000e+00 0.0000000000e+00
3.8000000000e-01 0.0000000000e+00 0.0000000000e+00
3.9000000000e-01 0.0000000000e+00 0.0000000000e+00
4.0000000000e-01 0.0000000000e+00 0.0000000000e+00
4.1000000000e-01 0.0000000000e+00 0.0000000000e+00
4.2000000000e-01 0.0000000000e+00 0.0000000000e+00
4.3000000000e-01 0.0000000000e+00 0.0000000000e+00
4.4000000000e-01 0.0000000000e+00 0.0000000000e+00
4.5000000000e-01 0.0000000000e+00 0.0000000000e+00
4.6000000000e-01 0.0000000000e+00 0.0000000000e+00
4.7000000000e-01 0.0000000000e+00 0.0000000000e+00
4.8000000000e-01 0.0000000000e+00 0.0000000000e+00
4.9000000000e-01 0.0000000000e+00 0.0000000000e+00
5.0000000000e-01 0.0000000000e+00 0.0000000000e+00
5.1000000000e-01 0.0000000000e+00 0.0000000000e+00
5.2000000000e-01 0.0000000000e+00 0.0000000000e+00
5.3000000000e-01 0.0000000000e+00 0.0000000000e+00
5.4000000000e-01 0.0000000000e+00 0.0000000000e+00
5.5000000000e-01 0.0000000000e+00 0.0000000000e+00
5.6000000000e-01 0.0000000000e+00 0.0000000000e+00
5.7000000000e-01 0.0000000000e+00 0.0000000000e+00
5.8000000000e-01 0.0000000000e+00 0.0000000000e+00
5.9000000000e-01 0.0000000000e+00 0.0000000000e+00
6.0000000000e-01 0.0000000000e+00 0.0000000000e+00
6.1000000000e-01 0.0000000000e+00 0.0000000000e+00
6.2000000000e-01 0.0000000000e+00 0.0000000000e+00
6.3000000000e-01 0.0000000000e+00 0.0000000000e+00
6.4000000000e-01 0.0000000000e+00 0.0000000000e+00
6.5000000000e-01 0.0000000000e+00 0.0000000000e+00
6.6000000000e-01 0.0000000000e+00 0.0000000000e+00
6.7000000000e-01 0.0000000000e+00 0.0000000000e+00
6.8000000000e-01 0.0000000000e+00 0.0000000000e+00
6.9000000000e-01 0.0000000000e+00 0.0000000000e+00
7.0000000000e-01 0.0000000000e+00 0.0000000000e+00
7.1000000000e-01 0.0000000000e+00 0.0000000000e+00
7.2000000000e-01 0.0000000000e+00 0.0000000000e+00
7.3000000000e-01 0.0000000000e+00 0.0000000000e+00
7.4000000000e-01 0.0000000000e+00 0.0000000000e+00
7.5000000000e-01 0.0000000000e+00 0.0000000000e+00
7.6000000000e-01 0.0000000000e+00 0.0000000000e+00
7.7000000000e-01 0.0000000000e+00 0.0000000000e+00
7.8000000000e-01 0.0000000000e+00 0.0000000000e+00
7.9000000000e-01 0.0000000000e+00 0.0000000000e+00
8.0000000000e-01 0.0000000000e+00 0.0000000000e+00
8.1000000000e-01 0.0000000000e+00 0.0000000000e+00
8.2000000000e-01 0.0000000000e+00 0.0000000000e+00
8.3000000000e-01 0.0000000000e+00 0.0000000000e+00
8.4000000000e-01 0.0000000000e+00 0.0000000000e+00
8.5000000000e-01 0.0000000000e+00 0.0000000000e+00
8.6000000000e-01 0.0000000000e+00 0.0000000000e+00
8.7000000000e-01 0.0000000000e+00 0.0000000000e+00
8.8000000000e-01 0.0000000000e+00 0.0000000000e+00
8.9000000000e-01 0.0000000000e+00 0.0000000000e+00
9.0000000000e-01 0.0000000000e+00 0.0000000000e+00
9.1000000000e-01 0.0000000000e+00 0.0000000000e+00
9.2000000000e-01 0.0000000000e+00 0.0000000000e+00
9.3000000000e-01 0.0000000000e+00 0.0000000000e+00
9.4000000000e-01 0.0000000000e+00 0.0000000000e+00
9.5000000000e-01 0.0000000000e+00 0.0000000000e+00
9.6000000000e-01 0.0000000000e+00 0.0000000000e+00
9.7000000000e-01 0.0000000000e+00 0.0000000000e+00
9.8000000000e-01 0.0000000000e+00 0.0000000000e+00
9.9000000000e-01 0.0000000000e+00 0.0000000000e+00
1.0000000000e+00 0.0000000000e+00 0.0000000000e+00
0.0000000000e+00 1.0000000000e-02 0.0000000000e+00
1.0000000000e-02 1.0000000000e-02 0.0000000000e+00
2.0000000000e-02 1.0000000000e-02 0.0000000000e+00
3.0000000000e-02 1.0000000000e-02 0.0000000000e+00
4.0000000000e-02 1.0000000000e-02 0.0000000000e+00
5.0000000000e-02 1.0000000000e-02 0.0000000000e+00
6.0000000000e-02 1.0000000000e-02 0.0000000000e+00
7.0000000000e-02 1.0000000000e-02 0.0000000000e+00
8.0000000000e-02 1.0000000000e-02 0.0000000000e+00
9.0000000000e-02 1.0000000000e-02 0.0000000000e+00
1.0000000000e-01 1.0000000000e-02 0.0000000000e+00
1.1000000000e-01 1.0000000000e-02 0.0000000000e+00
1.2000000000e-01 1.0000000000e-02 0.0000000000e+00
1.3000000000e-01 1.0000000000e-02 0.0000000000e+00
1.4000000000e-01 1.0000000000e-02 0.0000000000e+00
1.5000000000e-01 1.0000000000e-02 0.0000000000e+00
1.6000000000e-01 1.0000000000e-02 0.0000000000e+00
1.7000000000e-01 1.0000000000e-02 0.0000000000e+00
1.8000000000e-01 1.0000000000e-02 0.0000000000e+00
1.9000000000e-01 1.0000000000e-02 0.0000000000e+00
2.0000000000e-01 1.0000000000e-02 0.0000000000e+00
2.1000000000e-01 1.0000000000e-02 0.0000000000e+00
2.2000000000e-01 1.0000000000e-02 0.0000000000e+00
2.3000000000e-01 1.0000000000e-02 0.0000000000e+00
2.4000000000e-01 1.0000000000e-02 0.0000000000e+00
2.5000000000e-01 1.0000000000e-02 0.0000000000e+00
2.6000000000e-01 1.0000000000e-02 0.0000000000e+00
2.7000000000e-01 1.0000000000e-02 0.0000000000e+00
2.8000000000e-01 1.0000000000e-02 0.0000000000e+00
2.9000000000e-01 1.0000000000e-02 0.0000000000e+00
3.0000000000e-01 1.0000000000e-02 0.0000000000e+00
3.1000000000e-01 1.0000000000e-02 0.0000000000e+00
3.2000000000e-01 1.0000000000e-02 0.0000000000e+00
3.3000000000e-01 1.0000000000e-02 0.0000000000e+00
3.4000000000e-01 1.0000000000e-02 0.0000000000e+00
3.5000000000e-01 1.0000000000e-02 0.0000000000e+00
3.6000000000e-01 1.0000000000e-02 0.0000000000e+00
3.7000000000e-01 1.0000000000e-02 0.0000000000e+00
3.8000000000e-01 1.0000000000e-02 0.0000000000e+00
3.9000000000e-01 1.0000000000e-02 0.0000000000e+00
4.0000000000e-01 1.0000000000e-02 0.0000000000e+00
4.1000000000e-01 1.0000000000e-02 0.0000000000e+00
4.2000000000e-01 1.0000000000e-02 0.0000000000e+00
4.3000000000e-01 1.0000000000e-02 0.0000000000e+00
4.4000000000e-01 1.0000000000e-02 0.0000000000e+00
4.5000000000e-01 1.0000000000e-02 0.0000000000e+00
4.6000000000e-01 1.0000000000e-02 0.0000000000e+00
4.7000000000e-01 1.0000000000e-02 0.0000000000e+00
4.8000000000e-01 1.0000000000e-02 0.0000000000e+00
4.9000000000e-01 1.0000000000e-02 0.0000000000e+00
5.0000000000e-01 1.0000000000e-02 0.0000000000e+00
5.1000000000e-01 1.0000000000e-02 0.0000000000e+00
5.2000000000e-01 1.0000000000e-02 0.0000000000e+00
5.3000000000e-01 1.0000000000e-02 0.0000000000e+00
5.4000000000e-01 1.0000000000e-02 0.0000000000e+00
5.5000000000e-01 1.0000000000e-02 0.0000000000e+00
5.6000000000e-01 1.0000000000e-02 0.0000000000e+00
5.7000000000e-01 1.0000000000e-02 0.0000000000e+00
5.8000000000e-01 1.0000000000e-02 0.0000000000e+00
5.9000000000e-01 1.0000000000e-02 0.0000000000e+00
6.0000000000e-01 1.0000000000e-02 0.0000000000e+00
6.1000000000e-01 1.0000000000e-02 0.0000000000e+00
6.2000000000e-01 1.0000000000e-02 0.0000000000e+00
6.3000000000e-01 1.0000000000e-02 0.0000000000e+00
6.4000000000e-01 1.0000000000e-02 0.0000000000e+00
6.5000000000e-01 1.0000000000e-02 0.0000000000e+00
6.6000000000e-01 1.0000000000e-02 0.0000000000e+00
6.7000000000e-01 1.0000000000e-02 0.0000000000e+00
6.8000000000e-01 1.0000000000e-02 0.0000000000e+00
6.9000000000e-01 1.0000000000e-02 0.0000000000e+00
7.0000000000e-01 1.0000000000e-02 0.0000000000e+00
7.1000000000e-01 1.0000000000e-02 0.0000000000e+00
7.2000000000e-01 1.0000000000e-02 0.0000000000e+00
7.3000000000e-01 1.0000000000e-02 0.0000000000e+00
7.4000000000e-01 1.0000000000e-02 0.0000000000e+00
7.5000000000e-01 1.0000000000e-02 0.0000000000e+00
7.6000000000e-01 1.0000000000e-02 0.0000000000e+00
7.7000000000e-01 1.0000000000e-02 0.0000000000e+00
7.8000000000e-01 1.0000000000e-02 0.0000000000e+00
7.9000000000e-01 1.0000000000e-02 0.0000000000e+00
8.0000000000e-01 1.0000000000e-02 0.0000000000e+00
8.1000000000e-01 1.0000000000e-02 0.0000000000e+00
8.2000000000e-01 1.0000000000e-02 0.0000000000e+00
8.3000000000e-01 1.0000000000e-02 0.0000000000e+00
8.4000000000e-01 1.0000000000e-02 0.0000000000e+00
8.5000000000e-01 1.0000000000e-02 0.0000000000e+00
8.6000000000e-01 1.0000000000e-02 0.0000000000e+00
8.7000000000e-01 1.0000000000e-02 0.0000000000e+00
8.8000000000e-01 1.0000000000e-02 0.0000000000e+00
8.9000000000e-01 1.0000000000e-02 0.0000000000e+00
9.0000000000e-01 1.0000000000e-02 0.0000000000e+00
9.1000000000e-01 1.0000000000e-02 0.0000000000e+00
9.2000000000e-01 1.0000000000e-02 0.0000000000e+00
[...]
CELL_DATA 10000

SCALARS massDensity float
LOOKUP_TABLE default
1.2005533818e+00
1.2005708992e+00
1.2005992464e+00
1.2006422476e+00
1.2006993518e+00
1.2007698534e+00
1.2008529096e+00
1.2009475555e+00
1.2010527203e+00
1.2011672463e+00
1.2012899081e+00
1.2014194344e+00
1.2015545283e+00
1.2016938894e+00
1.2018362320e+00
1.2019803059e+00
1.2021249116e+00
1.2022689167e+00
1.2024112680e+00
1.2025510030e+00
1.2026872568e+00
1.2028192691e+00
1.2029463866e+00
1.2030680644e+00
1.2031838645e+00
1.2032934532e+00
1.2033965958e+00
1.2034931506e+00
1.2035830617e+00
1.2036663505e+00
1.2037431074e+00
1.2038134822e+00
1.2038776757e+00
1.2039359302e+00
1.2039885216e+00
1.2040357507e+00
1.2040779365e+00
1.2041154091e+00
1.2041485040e+00
1.2041775568e+00
1.2042028991e+00
1.2042248546e+00
1.2042437362e+00
1.2042598437e+00
1.2042734619e+00
1.2042848597e+00
1.2042942885e+00
1.2043019823e+00
1.2043081572e+00
1.2043130114e+00
1.2043167256e+00
1.2043194630e+00
1.2043213702e+00
1.2043225776e+00
1.2043232001e+00
1.2043233382e+00
1.2043230786e+00
1.2043224953e+00
1.2043216504e+00
1.2043205956e+00
1.2043193728e+00
1.2043180158e+00
1.2043165505e+00
1.2043149972e+00
1.2043133708e+00
1.2043116821e+00
1.2043099388e+00
1.2043081466e+00
1.2043063097e+00
1.2043044315e+00
1.2043025157e+00
1.2043005660e+00
1.2042985873e+00
1.2042965854e+00
1.2042945672e+00
1.2042925411e+00
1.2042905166e+00
1.2042885045e+00
1.2042865161e+00
1.2042845639e+00
1.2042826604e+00
1.2042808187e+00
1.2042790515e+00
1.2042773717e+00
1.2042757917e+00
1.2042743241e+00
1.2042729816e+00
1.2042717778e+00
1.2042707276e+00
1.2042698481e+00
1.2042691597e+00
1.2042686862e+00
1.2042684556e+00
1.2042685002e+00
1.2042688567e+00
1.2042695674e+00
1.2042706830e+00
1.2042722667e+00
1.2042743947e+00
1.2042669847e+00
1.2005708992e+00
1.2005893656e+00
1.2006181452e+00
1.2006613745e+00
1.2007185428e+00
1.2007889729e+00
1.2008718425e+00
1.2009662009e+00
1.2010709893e+00
1.2011850590e+00
1.2013071932e+00
1.2014361272e+00
1.2015705715e+00
1.2017092305e+00
1.2018508249e+00
1.2019941085e+00
1.2021378873e+00
1.2022810329e+00
1.2024224973e+00
1.2025613219e+00
1.2026966472e+00
1.2028277172e+00
1.2029538842e+00
1.2030746082e+00
1.2031894573e+00
1.2032981030e+00
1.2034003171e+00
1.2034959640e+00
1.2035849939e+00
1.2036674348e+00
1.2037433832e+00
1.2038129952e+00
1.2038764772e+00
1.2039340771e+00
1.2039860756e+00
1.2040327777e+00
1.2040745057e+00
1.2041115922e+00
1.2041443743e+00
1.2041731879e+00
1.2041983639e+00
1.2042202242e+00
1.2042390788e+00
1.2042552239e+00
1.2042689395e+00
1.2042804890e+00
1.2042901179e+00
1.2042980539e+00
1.2043045066e+00
1.2043096676e+00
1.2043137113e+00
1.2043167948e+00
1.2043190594e+00
1.2043206307e+00
1.2043216198e+00
1.2043221238e+00
1.2043222271e+00
1.2043220023e+00
1.2043215111e+00
1.2043208051e+00
1.2043199273e+00
1.2043189128e+00
1.2043177897e+00
1.2043165803e+00
1.2043153022e+00
1.2043139686e+00
1.2043125898e+00
1.2043111737e+00
1.2043097264e+00
1.2043082530e+00
1.2043067580e+00
1.2043052459e+00
1.2043037213e+00
1.2043021891e+00
1.2043006550e+00
1.2042991252e+00
1.2042976067e+00
1.2042961068e+00
1.2042946333e+00
1.2042931946e+00
1.2042917989e+00
1.2042904546e+00
1.2042891698e+00
1.2042879526e+00
1.2042868108e+00
1.2042857521e+00
1.2042847843e+00
1.2042839154e+00
1.2042831542e+00
1.2042825105e+00
1.2042819953e+00
1.2042816211e+00
1.2042814019e+00
1.2042813524e+00
1.2042814875e+00
1.2042818207e+00
1.2042823617e+00
1.2042831105e+00
1.2042840423e+00
1.2042745158e+00
1.2005992464e+00
1.2006181452e+00
1.2006468803e+00
1.2006898966e+00
1.2007467022e+00
1.2008166383e+00
1.2008988967e+00
1.2009925412e+00
1.2010965241e+00
1.2012097095e+00
1.2013308913e+00
1.2014588171e+00
1.2015922073e+00
1.2017297783e+00
1.2018702603e+00
1.2020124181e+00
1.2021550665e+00
1.2022970870e+00
1.2024374392e+00
1.2025751732e+00
1.2027094357e+00
1.2028394778e+00
1.2029646568e+00
1.2030844379e+00
1.2031983928e+00
1.2033061967e+00
1.2034076234e+00
1.2035025391e+00
1.2035908951e+00
1.2036727197e+00
1.2037481088e+00
1.2038172177e+00
1.2038802512e+00
1.2039374553e+00
1.2039891079e+00
1.2040355112e+00
1.2040769842e+00
1.2041138559e+00
1.2041464594e+00
1.2041751266e+00
1.2042001842e+00
1.2042219500e+00
1.2042407298e+00
1.2042568158e+00
1.2042704842e+00
1.2042819947e+00
1.2042915897e+00
1.2042994938e+00
1.2043059142e+00
1.2043110405e+00
1.2043150452e+00
1.2043180847e+00
1.2043202992e+00
1.2043218142e+00
1.2043227406e+00
1.2043231760e+00
1.2043232056e+00
1.2043229028e+00
1.2043223303e+00
1.2043215410e+00
1.2043205792e+00
1.2043194811e+00
1.2043182762e+00
1.2043169881e+00
1.2043156353e+00
1.2043142324e+00
1.2043127903e+00
1.2043113179e+00
1.2043098219e+00
1.2043083080e+00
1.2043067810e+00
1.2043052458e+00
1.2043037069e+00
1.2043021695e+00
1.2043006389e+00
1.2042991212e+00
1.2042976227e+00
1.2042961504e+00
1.2042947115e+00
1.2042933134e+00
1.2042919636e+00
1.2042906696e+00
1.2042894386e+00
1.2042882774e+00
1.2042871930e+00
1.2042861917e+00
1.2042852800e+00
1.2042844643e+00
1.2042837511e+00
1.2042831475e+00
1.2042826610e+00
1.2042822992e+00
1.2042820697e+00
1.2042819789e+00
1.2042820309e+00
1.2042822245e+00
1.2042825489e+00
1.2042829753e+00
1.2042834411e+00
1.2042729316e+00
1.2006422476e+00
1.2006613745e+00
1.2006898966e+00
1.2007325051e+00
1.2007887168e+00
1.2008578842e+00
1.2009392142e+00
1.2010317841e+00
1.2011345630e+00
1.2012464292e+00
1.2013661938e+00
1.2014926192e+00
1.2016244430e+00
1.2017603962e+00
1.2018992257e+00
1.2020397101e+00
1.2021806797e+00
1.2023210282e+00
1.2024597289e+00
1.2025958423e+00
1.2027285267e+00
1.2028570414e+00
1.2029807524e+00
1.2030991313e+00
1.2032117556e+00
1.2033183048e+00
1.2034185560e+00
1.2035123774e+00
1.2035997215e+00
1.2036806164e+00
1.2037551575e+00
1.2038234981e+00
1.2038858409e+00
1.2039424284e+00
1.2039935351e+00
1.2040394589e+00
1.2040805141e+00
1.2041170248e+00
1.2041493190e+00
1.2041777231e+00
1.2042025586e+00
1.2042241378e+00
1.2042427613e+00
1.2042587160e+00
1.2042722735e+00
1.2042836889e+00
1.2042932007e+00
1.2043010297e+00
1.2043073800e+00
1.2043124385e+00
1.2043163757e+00
1.2043193461e+00
1.2043214891e+00
1.2043229291e+00
1.2043237772e+00
1.2043241309e+00
1.2043240759e+00
1.2043236861e+00
1.2043230254e+00
1.2043221475e+00
1.2043210979e+00
1.2043199138e+00
1.2043186262e+00
1.2043172595e+00
1.2043158335e+00
1.2043143633e+00
1.2043128612e+00
1.2043113364e+00
1.2043097965e+00
1.2043082474e+00
1.2043066945e+00
1.2043051425e+00
1.2043035964e+00
1.2043020609e+00
1.2043005415e+00
1.2042990437e+00
1.2042975735e+00
1.2042961373e+00
1.2042947417e+00
1.2042933933e+00
1.2042920988e+00
1.2042908646e+00
1.2042896970e+00
1.2042886020e+00
1.2042875851e+00
1.2042866514e+00
1.2042858058e+00
1.2042850530e+00
1.2042843975e+00
1.2042838435e+00
1.2042833950e+00
1.2042830556e+00
1.2042828274e+00
1.2042827107e+00
1.2042827016e+00
1.2042827898e+00
1.2042829545e+00
1.2042831580e+00
1.2042833353e+00
1.2042723632e+00
1.2006993518e+00
1.2007185428e+00
1.2007467022e+00
1.2007887168e+00
1.2008441073e+00
1.2009122380e+00
1.2009923290e+00
1.2010834752e+00
1.2011846625e+00
1.2012947898e+00
1.2014126868e+00
1.2015371378e+00
1.2016668995e+00
1.2018007252e+00
1.2019373802e+00
1.2020756644e+00
1.2022144252e+00
1.2023525756e+00
1.2024891039e+00
1.2026230869e+00
1.2027536953e+00
1.2028802016e+00
1.2030019812e+00
1.2031185152e+00
1.2032293877e+00
1.2033342841e+00
1.2034329851e+00
1.2035253619e+00
1.2036113677e+00
1.2036910308e+00
1.2037644449e+00
1.2038317614e+00
1.2038931793e+00
1.2039489373e+00
1.2039993047e+00
1.2040445744e+00
1.2040850546e+00
1.2041210632e+00
1.2041529217e+00
1.2041809503e+00
1.2042054634e+00
1.2042267669e+00
1.2042451552e+00
1.2042609091e+00
1.2042742943e+00
1.2042855607e+00
1.2042949417e+00
1.2043026542e+00
1.2043088979e+00
1.2043138571e+00
1.2043176992e+00
1.2043205770e+00
1.2043226279e+00
1.2043239760e+00
1.2043247311e+00
1.2043249910e+00
1.2043248414e+00
1.2043243569e+00
1.2043236017e+00
1.2043226309e+00
1.2043214905e+00
1.2043202193e+00
1.2043188486e+00
1.2043174043e+00
1.2043159068e+00
1.2043143725e+00
1.2043128139e+00
1.2043112413e+00
1.2043096625e+00
1.2043080839e+00
1.2043065110e+00
1.2043049490e+00
1.2043034024e+00
1.2043018762e+00
1.2043003754e+00
1.2042989052e+00
1.2042974712e+00
1.2042960793e+00
1.2042947352e+00
1.2042934449e+00
1.2042922143e+00
1.2042910489e+00
1.2042899540e+00
1.2042889343e+00
1.2042879944e+00
1.2042871379e+00
1.2042863684e+00
1.2042856886e+00
1.2042851010e+00
1.2042846075e+00
1.2042842091e+00
1.2042839057e+00
1.2042836958e+00
1.2042835748e+00
1.2042835342e+00
1.2042835594e+00
1.2042836266e+00
1.2042836991e+00
1.2042837228e+00
1.2042726931e+00
1.2007698534e+00
1.2007889729e+00
1.2008166383e+00
1.2008578842e+00
1.2009122380e+00
1.2009790743e+00
1.2010576298e+00
1.2011470169e+00
1.2012462437e+00
1.2013542302e+00
1.2014698316e+00
1.2015918551e+00
1.2017190843e+00
1.2018502956e+00
1.2019842808e+00
1.2021198620e+00
1.2022559113e+00
1.2023913615e+00
1.2025252229e+00
1.2026565891e+00
1.2027846489e+00
1.2029086881e+00
1.2030280959e+00
1.2031423630e+00
1.2032510831e+00
1.2033539473e+00
1.2034507418e+00
1.2035413399e+00
1.2036256968e+00
1.2037038399e+00
1.2037758616e+00
1.2038419098e+00
1.2039021799e+00
1.2039569050e+00
1.2040063491e+00
1.2040507980e+00
1.2040905533e+00
1.2041259253e+00
1.2041572279e+00
1.2041847732e+00
1.2042088684e+00
1.2042298115e+00
1.2042478896e+00
1.2042633762e+00
1.2042765307e+00
1.2042875967e+00
1.2042968020e+00
1.2043043583e+00
1.2043104614e+00
1.2043152912e+00
1.2043190127e+00
1.2043217756e+00
1.2043237159e+00
1.2043249558e+00
1.2043256048e+00
1.2043257600e+00
1.2043255072e+00
1.2043249211e+00
1.2043240668e+00
1.2043229995e+00
1.2043217667e+00
1.2043204074e+00
1.2043189545e+00
1.2043174342e+00
1.2043158681e+00
1.2043142731e+00
1.2043126625e+00
1.2043110469e+00
1.2043094348e+00
1.2043078326e+00
1.2043062463e+00
1.2043046808e+00
1.2043031409e+00
1.2043016311e+00
1.2043001562e+00
1.2042987212e+00
1.2042973310e+00
1.2042959910e+00
1.2042947063e+00
1.2042934822e+00
1.2042923237e+00
1.2042912353e+00
1.2042902216e+00
1.2042892861e+00
1.2042884321e+00
1.2042876622e+00
1.2042869784e+00
1.2042863818e+00
1.2042858731e+00
1.2042854519e+00
1.2042851170e+00
1.2042848657e+00
1.2042846934e+00
1.2042845929e+00
1.2042845532e+00
1.2042845583e+00
1.2042845856e+00
1.2042846038e+00
1.2042845719e+00
1.2042737993e+00
1.2008529096e+00
1.2008718425e+00
1.2008988967e+00
1.2009392142e+00
1.2009923290e+00
1.2010576298e+00
1.2011343697e+00
1.2012216834e+00
1.2013186010e+00
1.2014240704e+00
1.2015369723e+00
1.2016561444e+00
1.2017803975e+00
1.2019085391e+00
1.2020393879e+00
1.2021717960e+00
1.2023046602e+00
1.2024369409e+00
1.2025676699e+00
1.2026959643e+00
1.2028210306e+00
1.2029421734e+00
1.2030587951e+00
1.2031704002e+00
1.2032765910e+00
1.2033770674e+00
1.2034716200e+00
1.2035601264e+00
1.2036425422e+00
1.2037188949e+00
1.2037892743e+00
1.2038538253e+00
1.2039127377e+00
1.2039662392e+00
1.2040145866e+00
1.2040580583e+00
1.2040969476e+00
1.2041315565e+00
1.2041621897e+00
1.2041891510e+00
1.2042127383e+00
1.2042332413e+00
1.2042509384e+00
1.2042660957e+00
1.2042789645e+00
1.2042897819e+00
1.2042987693e+00
1.2043061329e+00
1.2043120632e+00
1.2043167363e+00
1.2043203132e+00
1.2043229411e+00
1.2043247535e+00
1.2043258712e+00
1.2043264022e+00
1.2043264434e+00
1.2043260799e+00
1.2043253870e+00
1.2043244295e+00
1.2043232639e+00
1.2043219376e+00
1.2043204911e+00
1.2043189573e+00
1.2043173638e+00
1.2043157325e+00
1.2043140811e+00
1.2043124234e+00
1.2043107704e+00
1.2043091308e+00
1.2043075116e+00
1.2043059184e+00
1.2043043565e+00
1.2043028302e+00
1.2043013440e+00
1.2042999025e+00
1.2042985099e+00
1.2042971710e+00
1.2042958904e+00
1.2042946727e+00
1.2042935223e+00
1.2042924435e+00
1.2042914401e+00
1.2042905154e+00
1.2042896723e+00
1.2042889128e+00
1.2042882384e+00
1.2042876496e+00
1.2042871463e+00
1.2042867274e+00
1.2042863909e+00
1.2042861337e+00
1.2042859511e+00
1.2042858366e+00
1.2042857815e+00
1.2042857741e+00
1.2042857987e+00
1.2042858355e+00
1.2042858595e+00
1.2042858418e+00
1.2042755737e+00
1.2009475555e+00
1.2009662009e+00
1.2009925412e+00
1.2010317841e+00
1.2010834752e+00
1.2011470169e+00
1.2012216834e+00
1.2013066310e+00
1.2014009185e+00
1.2015035207e+00
1.2016133513e+00
1.2017292781e+00
1.2018501470e+00
1.2019747962e+00
1.2021020793e+00
1.2022308778e+00
1.2023601214e+00
1.2024887970e+00
1.2026159652e+00
1.2027407658e+00
1.2028624291e+00
1.2029802773e+00
1.2030937312e+00
1.2032023078e+00
1.2033056220e+00
1.2034033809e+00
1.2034953825e+00
1.2035815068e+00
1.2036617118e+00
1.2037360235e+00
1.2038045300e+00
1.2038673712e+00
1.2039247321e+00
1.2039768331e+00
1.2040239235e+00
1.2040662729e+00
1.2041041658e+00
1.2041378941e+00
1.2041677533e+00
1.2041940367e+00
1.2042170330e+00
1.2042370219e+00
1.2042542730e+00
1.2042690430e+00
1.2042815757e+00
1.2042921001e+00
1.2043008309e+00
1.2043079678e+00
1.2043136964e+00
1.2043181875e+00
1.2043215986e+00
1.2043240732e+00
1.2043257427e+00
1.2043267255e+00
1.2043271288e+00
1.2043270479e+00
1.2043265682e+00
1.2043257641e+00
1.2043247014e+00
1.2043234363e+00
1.2043220172e+00
1.2043204847e+00
1.2043188729e+00
1.2043172095e+00
1.2043155175e+00
1.2043138146e+00
1.2043121155e+00
1.2043104312e+00
1.2043087707e+00
1.2043071411e+00
1.2043055482e+00
1.2043039969e+00
1.2043024915e+00
1.2043010363e+00
1.2042996353e+00
1.2042982926e+00
1.2042970122e+00
1.2042957982e+00
1.2042946545e+00
1.2042935851e+00
1.2042925932e+00
1.2042916820e+00
1.2042908539e+00
1.2042901108e+00
1.2042894537e+00
1.2042888831e+00
1.2042883983e+00
1.2042879979e+00
1.2042876795e+00
1.2042874398e+00
1.2042872741e+00
1.2042871764e+00
1.2042871392e+00
1.2042871530e+00
1.2042872061e+00
1.2042872843e+00
1.2042873707e+00
1.2042874465e+00
1.2042874915e+00
1.2042779253e+00
1.2010527203e+00
1.2010709893e+00
1.2010965241e+00
1.2011345630e+00
1.2011846625e+00
1.2012462437e+00
1.2013186010e+00
1.2014009185e+00
1.2014922822e+00
1.2015917009e+00
1.2016981203e+00
1.2018104459e+00
1.2019275576e+00
1.2020483324e+00
1.2021716577e+00
1.2022964525e+00
1.2024216777e+00
1.2025463546e+00
1.2026695712e+00
1.2027904964e+00
1.2029083830e+00
1.2030225766e+00
1.2031325146e+00
1.2032377311e+00
1.2033378518e+00
1.2034325948e+00
1.2035217632e+00
1.2036052424e+00
1.2036829906e+00
1.2037550341e+00
1.2038214571e+00
1.2038823959e+00
1.2039380284e+00
1.2039885682e+00
1.2040342554e+00
1.2040753508e+00
1.2041121280e+00
1.2041448692e+00
1.2041738586e+00
1.2041993793e+00
1.2042217085e+00
1.2042411164e+00
1.2042578618e+00
1.2042721926e+00
1.2042843430e+00
1.2042945344e+00
1.2043029734e+00
1.2043098537e+00
1.2043153542e+00
1.2043196412e+00
1.2043228673e+00
1.2043251731e+00
1.2043266865e+00
1.2043275242e+00
1.2043277913e+00
1.2043275826e+00
1.2043269821e+00
1.2043260647e+00
1.2043248954e+00
1.2043235314e+00
1.2043220209e+00
1.2043204054e+00
1.2043187190e+00
1.2043169905e+00
1.2043152428e+00
1.2043134944e+00
1.2043117600e+00
1.2043100511e+00
1.2043083768e+00
1.2043067441e+00
1.2043051587e+00
1.2043036254e+00
1.2043021484e+00
1.2043007316e+00
1.2042993784e+00
1.2042980927e+00
1.2042968778e+00
1.2042957374e+00
1.2042946747e+00
1.2042936929e+00
1.2042927948e+00
1.2042919825e+00
1.2042912578e+00
1.2042906217e+00
1.2042900744e+00
1.2042896151e+00
1.2042892425e+00
1.2042889539e+00
1.2042887460e+00
1.2042886141e+00
1.2042885527e+00
1.2042885549e+00
1.2042886124e+00
1.2042887157e+00
1.2042888535e+00
1.2042890131e+00
1.2042891806e+00
1.2042893418e+00
1.2042894830e+00
1.2042807781e+00
1.2011672463e+00
1.2011850590e+00
1.2012097095e+00
1.2012464292e+00
1.2012947898e+00
1.2013542302e+00
1.2014240704e+00
1.2015035207e+00
1.2015917009e+00
1.2016876523e+00
1.2017903598e+00
1.2018987651e+00
1.2020117898e+00
1.2021283479e+00
1.2022473686e+00
1.2023678064e+00
1.2024886615e+00
1.2026089873e+00
1.2027279062e+00
1.2028446145e+00
1.2029583935e+00
1.2030686101e+00
1.2031747238e+00
1.2032762833e+00
1.2033729297e+00
1.2034643896e+00
1.2035504747e+00
1.2036310733e+00
1.2037061464e+00
1.2037757182e+00
1.2038398709e+00
1.2038987347e+00
1.2039524816e+00
1.2040013163e+00
1.2040454703e+00
1.2040851934e+00
1.2041207492e+00
1.2041524077e+00
1.2041804422e+00
1.2042051237e+00
1.2042267187e+00
1.2042454853e+00
1.2042616724e+00
1.2042755172e+00
1.2042872449e+00
1.2042970674e+00
1.2043051841e+00
1.2043117808e+00
1.2043170307e+00
1.2043210941e+00
1.2043241195e+00
1.2043262430e+00
1.2043275899e+00
1.2043282739e+00
1.2043283989e+00
1.2043280577e+00
1.2043273342e+00
1.2043263023e+00
1.2043250273e+00
1.2043235659e+00
1.2043219671e+00
1.2043202722e+00
1.2043185162e+00
1.2043167278e+00
1.2043149306e+00
1.2043131432e+00
1.2043113807e+00
1.2043096545e+00
1.2043079738e+00
1.2043063455e+00
1.2043047754e+00
1.2043032678e+00
1.2043018267e+00
1.2043004556e+00
1.2042991576e+00
1.2042979359e+00
1.2042967935e+00
1.2042957333e+00
1.2042947581e+00
1.2042938704e+00
1.2042930721e+00
1.2042923650e+00
1.2042917499e+00
1.2042912270e+00
1.2042907957e+00
1.2042904547e+00
1.2042902013e+00
1.2042900324e+00
1.2042899435e+00
1.2042899292e+00
1.2042899832e+00
1.2042900980e+00
1.2042902651e+00
1.2042904749e+00
1.2042907167e+00
1.2042909795e+00
1.2042912515e+00
1.2042915219e+00
1.2042917812e+00
1.2042840674e+00
1.2012899081e+00
1.2013071932e+00
1.2013308913e+00
1.2013661938e+00
1.2014126868e+00
1.2014698316e+00
1.2015369723e+00
1.2016133513e+00
1.2016981203e+00
1.2017903598e+00
1.2018890919e+00
1.2019933016e+00
1.2021019501e+00
1.2022139964e+00
1.2023284087e+00
1.2024441850e+00
1.2025603620e+00
1.2026760324e+00
1.2027903509e+00
1.2029025474e+00
1.2030119293e+00
1.2031178906e+00
1.2032199100e+00
1.2033175561e+00
1.2034104824e+00
1.2034984281e+00
1.2035812110e+00
1.2036587252e+00
1.2037309321e+00
1.2037978560e+00
1.2038595748e+00
1.2039162140e+00
1.2039679376e+00
1.2040149425e+00
1.2040574493e+00
1.2040956978e+00
1.2041299391e+00
1.2041604322e+00
1.2041874372e+00
1.2042112136e+00
1.2042320151e+00
1.2042500886e+00
1.2042656712e+00
1.2042789899e+00
1.2042902593e+00
1.2042996827e+00
1.2043074504e+00
1.2043137412e+00
1.2043187211e+00
1.2043225451e+00
1.2043253562e+00
1.2043272871e+00
1.2043284589e+00
1.2043289835e+00
1.2043289620e+00
1.2043284864e+00
1.2043276389e+00
1.2043264933e+00
1.2043251144e+00
1.2043235589e+00
1.2043218757e+00
1.2043201067e+00
1.2043182867e+00
1.2043164450e+00
1.2043146052e+00
1.2043127862e+00
1.2043110030e+00
1.2043092674e+00
1.2043075883e+00
1.2043059726e+00
1.2043044256e+00
1.2043029516e+00
1.2043015541e+00
1.2043002362e+00
1.2042990006e+00
1.2042978499e+00
1.2042967866e+00
1.2042958130e+00
1.2042949314e+00
1.2042941435e+00
1.2042934508e+00
1.2042928542e+00
1.2042923539e+00
1.2042919496e+00
1.2042916399e+00
1.2042914225e+00
1.2042912944e+00
1.2042912514e+00
1.2042912885e+00
1.2042913997e+00
1.2042915780e+00
1.2042918155e+00
1.2042921036e+00
1.2042924329e+00
1.2042927934e+00
1.2042931750e+00
1.2042935678e+00
1.2042939631e+00
1.2042943540e+00
1.2042877363e+00
1.2014194344e+00
1.2014361272e+00
1.2014588171e+00
1.2014926192e+00
1.2015371378e+00
1.2015918551e+00
1.2016561444e+00
1.2017292781e+00
1.2018104459e+00
1.2018987651e+00
1.2019933016e+00
1.2020930814e+00
1.2021971124e+00
1.2023043955e+00
1.2024139457e+00
1.2025248012e+00
1.2026360426e+00
1.2027467990e+00
1.2028562638e+00
1.2029636978e+00
1.2030684404e+00
1.2031699096e+00
1.2032676088e+00
1.2033611234e+00
1.2034501237e+00
1.2035343587e+00
1.2036136558e+00
1.2036879123e+00
1.2037570925e+00
1.2038212187e+00
1.2038803659e+00
1.2039346532e+00
1.2039842379e+00
1.2040293066e+00
1.2040700705e+00
1.2041067570e+00
1.2041396060e+00
1.2041688629e+00
1.2041947759e+00
1.2042175908e+00
1.2042375493e+00
1.2042548855e+00
1.2042698253e+00
1.2042825837e+00
1.2042933657e+00
1.2043023642e+00
1.2043097614e+00
1.2043157275e+00
1.2043204223e+00
1.2043239940e+00
1.2043265811e+00
1.2043283111e+00
1.2043293026e+00
1.2043296636e+00
1.2043294938e+00
1.2043288830e+00
1.2043279129e+00
1.2043266558e+00
1.2043251765e+00
1.2043235313e+00
1.2043217693e+00
1.2043199321e+00
1.2043180551e+00
1.2043161673e+00
1.2043142927e+00
1.2043124501e+00
1.2043106547e+00
1.2043089180e+00
1.2043072489e+00
1.2043056540e+00
1.2043041384e+00
1.2043027060e+00