# vtk DataFile Version 2.0
Blank
ASCII
DATASET STRUCTURED_GRID
DIMENSIONS 101 101 2
POINTS 20402 float
0.0000000000e+00 0.0000000000e+00 0.0000000000e+00
1.0000000000e-02 0.0000000000e+00 0.0000000000e+00
2.0000000000e-02 0.0000000000e+00 0.0000000000e+00
3.0000000000e-02 0.0000000000e+00 0.0000000000e+00
4.0000000000e-02 0.0000000000e+00 0.0000000000e+00
5.0000000000e-02 0.0000000000e+00 0.0000000000e+00
6.0000000000e-02 0.0000000000e+00 0.0000000000e+00
7.0000000000e-02 0.0000000000e+00 0.0000000000e+00
8.0000000000e-02 0.0000000000e+00 0.0000000000e+00
9.0000000000e-02 0.0000000000e+00 0.0000000000e+00
1.0000000000e-01 0.0000000000e+00 0.0000000000e+00
1.1000000000e-01 0.0000000000e+00 0.0000000000e+00
1.2000000000e-01 0.0000000000e+00 0.0000000000e+00
1.3000000000e-01 0.0000000000e+00 0.0000000000e+00
1.4000000000e-01 0.0000000000e+00 0.0000000000e+00
1.5000000000e-01 0.0000000000e+00 0.0000000000e+00
1.6000000000e-01 0.0000000000e+00 0.0000000000e+00
1.7000000000e-01 0.0000000000e+00 0.0000000000e+00
1.8000000000e-01 0.0000000000e+00 0.0000000000e+00
1.9000000000e-01 0.0000000000e+00 0.0000000000e+00
2.0000000000e-01 0.0000000000e+00 0.0000000000e+00
2.1000000000e-01 0.0000000000e+00 0.0000000000e+00
2.2000000000e-01 0.0000000000e+00 0.0000000000e+00
2.3000000000e-01 0.0000000000e+00 0.0000000000e+00
2.4000000000e-01 0.0000000000e+00 0.0000000000e+00
2.5000000000e-01 0.0000000000e+00 0.0000000000e+00
2.6000000000e-01 0.0000000000e+00 0.0000000000e+00
2.7000000000e-01 0.0000000000e+00 0.0000000000e+00
2.8000000000e-01 0.0000000000e+00 0.0000000000e+00
2.9000000000e-01 0.0000000000e+00 0.0000000000e+00
3.0000000000e-01 0.0000000000e+00 0.0000000000e+00
3.1000000000e-01 0.0000000000e+00 0.0000000000e+00
3.2000000000e-01 0.0000000000e+00 0.0000000000e+00
3.3000000000e-01 0.0000000000e+00 0.0000000000e+00
3.4000000000e-01 0.0000000000e+00 0.0000000000e+00
3.5000000000e-01 0.0000000000e+00 0.0000000000e+00
3.6000000000e-01 0.0000000000e+00 0.0000000000e+00
3.7000000000e-01 0.0000000000e+00 0.0000000000e+00
3.8000000000e-01 0.0000000000e+00 0.0000000000e+00
3.9000000000e-01 0.0000000000e+00 0.0000000000e+00
4.0000000000e-01 0.0000000000e+00 0.0000000000e+00
4.1000000000e-01 0.0000000000e+00 0.0000000000e+00
4.2000000000e-01 0.0000000000e+00 0.0000000000e+00
4.3000000000e-01 0.0000000000e+00 0.0000000000e+00
4.4000000000e-01 0.0000000000e+00 0.0000000000e+00
4.5000000000e-01 0.0000000000e+00 0.0000000000e+00
4.6000000000e-01 0.0000000000e+00 0.0000000000e+00
4.7000000000e-01 0.0000000000e+00 0.0000000000e+00
4.8000000000e-01 0.0000000000e+00 0.0000000000e+00
4.9000000000e-01 0.0000000000e+00 0.0000000000e+00
5.0000000000e-01 0.0000000000e+00 0.0000000000e+00
5.1000000000e-01 0.0000000000e+00 0.0000000000e+00
5.2000000000e-01 0.0000000000e+00 0.0000000000e+00
5.3000000000e-01 0.0000000000e+00 0.0000000000e+00
5.4000000000e-01 0.0000000000e+00 0.0000000000e+00
5.5000000000e-01 0.0000000000e+00 0.0000000000e+00
5.6000000000e-01 0.0000000000e+00 0.0000000000e+00
5.7000000000e-01 0.0000000000e+00 0.0000000000e+00
5.8000000000e-01 0.0000000000e+00 0.0000000000e+00
5.9000000000e-01 0.0000000000e+00 0.0000000000e+00
6.0000000000e-01 0.0000000000e+00 0.0000000000e+00
6.1000000000e-01 0.0000000000e+00 0.0000000000e+00
6.2000000000e-01 0.0000000000e+00 0.0000000000e+00
6.3000000000e-01 0.0000000000e+00 0.0000000000e+00
6.4000000000e-01 0.0000000000e+00 0.0000000000e+00
6.5000000000e-01 0.0000000000e+00 0.0000000000e+00
6.6000000000e-01 0.0000000000e+00 0.0000000000e+00
6.7000000000e-01 0.0000000000e+00 0.0000000000e+00
6.8000000000e-01 0.0000000000e+00 0.0000000000e+00
6.9000000000e-01 0.0000000000e+00 0.0000000000e+00
7.0000000000e-01 0.0000000000e+00 0.0000000000e+00
7.1000000000e-01 0.0000000000e+00 0.0000000000e+00
7.2000000000e-01 0.0000000000e+00 0.0000000000e+00
7.3000000000e-01 0.0000000000e+00 0.0000000000e+00
7.4000000000e-01 0.0000000000e+00 0.0000000000e+00
7.5000000000e-01 0.0000000000e+00 0.0000000000e+00
7.6000000000e-01 0.0000000000e+00 0.0000000000e+00
7.7000000000e-01 0.0000000000e+00 0.0000000000e+00
7.8000000000e-01 0.0000000000e+00 0.0000000000e+00
7.9000000000e-01 0.0000000000e+00 0.0000000000e+00
8.0000000000e-01 0.0000000000e+00 0.0000000000e+00
8.1000000000e-01 0.0000000000e+00 0.0000000000e+00
8.2000000000e-01 0.0000000000e+00 0.0000000000e+00
8.3000000000e-01 0.0000000000e+00 0.0000000000e+00
8.4000000000e-01 0.0000000000e+00 0.0000000000e+00
8.5000000000e-01 0.0000000000e+00 0.0000000000e+00
8.6000000000e-01 0.0000000000e+00 0.0000000000e+00
8.7000000000e-01 0.0000000000e+00 0.0000000000e+00
8.8000000000e-01 0.0000000000e+00 0.0000000000e+00
8.9000000000e-01 0.0000000000e+00 0.0000000000e+00
9.0000000000e-01 0.0000000000e+00 0.0000000000e+00
9.1000000000e-01 0.0000000000e+00 0.0000000000e+00
9.2000000000e-01 0.0000000000e+00 0.0000000000e+00
9.3000000000e-01 0.0000000000e+00 0.0000000000e+00
9.4000000000e-01 0.0000000000e+00 0.0000000000e+00
9.5000000000e-01 0.0000000000e+00 0.0000000000e+00
9.6000000000e-01 0.0000000000e+00 0.0000000000e+00
9.7000000000e-01 0.0000000000e+00 0.0000000000e+00
9.8000000000e-01 0.0000000000e+00 0.0000000000e+00
9.9000000000e-01 0.0000000000e+00 0.0000000000e+00
1.0000000000e+00 0.0000000000e+00 0.0000000000e+00
0.0000000000e+00 1.0000000000e-02 0.0000000000e+00
1.0000000000e-02 1.0000000000e-02 0.0000000000e+00
2.0000000000e-02 1.0000000000e-02 0.0000000000e+00
3.0000000000e-02 1.0000000000e-02 0.0000000000e+00
4.0000000000e-02 1.0000000000e-02 0.0000000000e+00
5.0000000000e-02 1.0000000000e-02 0.0000000000e+00
6.0000000000e-02 1.0000000000e-02 0.0000000000e+00
7.0000000000e-02 1.0000000000e-02 0.0000000000e+00
8.0000000000e-02 1.0000000000e-02 0.0000000000e+00
9.0000000000e-02 1.0000000000e-02 0.0000000000e+00
1.0000000000e-01 1.0000000000e-02 0.0000000000e+00
1.1000000000e-01 1.0000000000e-02 0.0000000000e+00
1.2000000000e-01 1.0000000000e-02 0.0000000000e+00
1.3000000000e-01 1.0000000000e-02 0.0000000000e+00
1.4000000000e-01 1.0000000000e-02 0.0000000000e+00
1.5000000000e-01 1.0000000000e-02 0.0000000000e+00
1.6000000000e-01 1.0000000000e-02 0.0000000000e+00
1.7000000000e-01 1.0000000000e-02 0.0000000000e+00
1.8000000000e-01 1.0000000000e-02 0.0000000000e+00
1.9000000000e-01 1.0000000000e-02 0.0000000000e+00
2.0000000000e-01 1.0000000000e-02 0.0000000000e+00
2.1000000000e-01 1.0000000000e-02 0.0000000000e+00
2.2000000000e-01 1.0000000000e-02 0.0000000000e+00
2.3000000000e-01 1.0000000000e-02 0.0000000000e+00
2.4000000000e-01 1.0000000000e-02 0.0000000000e+00
2.5000000000e-01 1.0000000000e-02 0.0000000000e+00
2.6000000000e-01 1.0000000000e-02 0.0000000000e+00
2.7000000000e-01 1.0000000000e-02 0.0000000000e+00
2.8000000000e-01 1.0000000000e-02 0.0000000000e+00
2.9000000000e-01 1.0000000000e-02 0.0000000000e+00
3.0000000000e-01 1.0000000000e-02 0.0000000000e+00
3.1000000000e-01 1.0000000000e-02 0.0000000000e+00
3.2000000000e-01 1.0000000000e-02 0.0000000000e+00
3.3000000000e-01 1.0000000000e-02 0.0000000000e+00
3.4000000000e-01 1.0000000000e-02 0.0000000000e+00
3.5000000000e-01 1.0000000000e-02 0.0000000000e+00
3.6000000000e-01 1.0000000000e-02 0.0000000000e+00
3.7000000000e-01 1.0000000000e-02 0.0000000000e+00
3.8000000000e-01 1.0000000000e-02 0.0000000000e+00
3.9000000000e-01 1.0000000000e-02 0.0000000000e+00
4.0000000000e-01 1.0000000000e-02 0.0000000000e+00
4.1000000000e-01 1.0000000000e-02 0.0000000000e+00
4.2000000000e-01 1.0000000000e-02 0.0000000000e+00
4.3000000000e-01 1.0000000000e-02 0.0000000000e+00
4.4000000000e-01 1.0000000000e-02 0.0000000000e+00
4.5000000000e-01 1.0000000000e-02 0.0000000000e+00
4.6000000000e-01 1.0000000000e-02 0.0000000000e+00
4.7000000000e-01 1.0000000000e-02 0.0000000000e+00
4.8000000000e-01 1.0000000000e-02 0.0000000000e+00
4.9000000000e-01 1.0000000000e-02 0.0000000000e+00
5.0000000000e-01 1.0000000000e-02 0.0000000000e+00
5.1000000000e-01 1.0000000000e-02 0.0000000000e+00
5.2000000000e-01 1.0000000000e-02 0.0000000000e+00
5.3000000000e-01 1.0000000000e-02 0.0000000000e+00
5.4000000000e-01 1.0000000000e-02 0.0000000000e+00
5.5000000000e-01 1.0000000000e-02 0.0000000000e+00
5.6000000000e-01 1.0000000000e-02 0.0000000000e+00
5.7000000000e-01 1.0000000000e-02 0.0000000000e+00
5.8000000000e-01 1.0000000000e-02 0.0000000000e+00
5.9000000000e-01 1.0000000000e-02 0.0000000000e+00
6.0000000000e-01 1.0000000000e-02 0.0000000000e+00
6.1000000000e-01 1.0000000000e-02 0.0000000000e+00
6.2000000000e-01 1.0000000000e-02 0.0000000000e+00
6.3000000000e-01 1.0000000000e-02 0.0000000000e+00
6.4000000000e-01 1.0000000000e-02 0.0000000000e+00
6.5000000000e-01 1.0000000000e-02 0.0000000000e+00
6.6000000000e-01 1.0000000000e-02 0.0000000000e+00
6.7000000000e-01 1.0000000000e-02 0.0000000000e+00
6.8000000000e-01 1.0000000000e-02 0.0000000000e+00
6.9000000000e-01 1.0000000000e-02 0.0000000000e+00
7.0000000000e-01 1.0000000000e-02 0.0000000000e+00
7.1000000000e-01 1.0000000000e-02 0.0000000000e+00
7.2000000000e-01 1.0000000000e-02 0.0000000000e+00
7.3000000000e-01 1.0000000000e-02 0.0000000000e+00
7.4000000000e-01 1.0000000000e-02 0.0000000000e+00
7.5000000000e-01 1.0000000000e-02 0.0000000000e+00
7.6000000000e-01 1.0000000000e-02 0.0000000000e+00
7.7000000000e-01 1.0000000000e-02 0.0000000000e+00
7.8000000000e-01 1.0000000000e-02 0.0000000000e+00
7.9000000000e-01 1.0000000000e-02 0.0000000000e+00
8.0000000000e-01 1.0000000000e-02 0.0000000000e+00
8.1000000000e-01 1.0000000000e-02 0.0000000000e+00
8.2000000000e-01 1.0000000000e-02 0.0000000000e+00
8.3000000000e-01 1.0000000000e-02 0.0000000000e+00
8.4000000000e-01 1.0000000000e-02 0.0000000000e+00
8.5000000000e-01 1.0000000000e-02 0.0000000000e+00
8.6000000000e-01 1.0000000000e-02 0.0000000000e+00
8.7000000000e-01 1.0000000000e-02 0.0000000000e+00
8.8000000000e-01 1.0000000000e-02 0.0000000000e+00
8.9000000000e-01 1.0000000000e-02 0.0000000000e+00
9.0000000000e-01 1.0000000000e-02 0.0000000000e+00
9.1000000000e-01 1.0000000000e-02 0.0000000000e+00
9.2000000000e-01 1.0000000000e-02 0.0000000000e+00
[...]
CELL_DATA 10000

SCALARS massDensity float
LOOKUP_TABLE default
1.1978590609e+00
1.1979150139e+00
1.1979975058e+00
1.1981214491e+00
1.1982841365e+00
1.1984821859e+00
1.1987116630e+00
1.1989681848e+00
1.1992470520e+00
1.1995433689e+00
1.1998521853e+00
1.2001686156e+00
1.2004879685e+00
1.2008058439e+00
1.2011182332e+00
1.2014215798e+00
1.2017128394e+00
1.2019895000e+00
1.2022496010e+00
1.2024917149e+00
1.2027149314e+00
1.2029188109e+00
1.2031033436e+00
1.2032688864e+00
1.2034161100e+00
1.2035459318e+00
1.2036594619e+00
1.2037579414e+00
1.2038426968e+00
1.2039150893e+00
1.2039764820e+00
1.2040282040e+00
1.2040715310e+00
1.2041076629e+00
1.2041377164e+00
1.2041627139e+00
1.2041835848e+00
1.2042011610e+00
1.2042161831e+00
1.2042292998e+00
1.2042410751e+00
1.2042519882e+00
1.2042624401e+00
1.2042727534e+00
1.2042831767e+00
1.2042938841e+00
1.2043049804e+00
1.2043165001e+00
1.2043284145e+00
1.2043406337e+00
1.2043530160e+00
1.2043653742e+00
1.2043774877e+00
1.2043891124e+00
1.2043999955e+00
1.2044098862e+00
1.2044185508e+00
1.2044257823e+00
1.2044314119e+00
1.2044353156e+00
1.2044374200e+00
1.2044377033e+00
1.2044361958e+00
1.2044329752e+00
1.2044281621e+00
1.2044219116e+00
1.2044144058e+00
1.2044058443e+00
1.2043964353e+00
1.2043863879e+00
1.2043759045e+00
1.2043651752e+00
1.2043543729e+00
1.2043436504e+00
1.2043331389e+00
1.2043229472e+00
1.2043131620e+00
1.2043038499e+00
1.2042950582e+00
1.2042868181e+00
1.2042791459e+00
1.2042720465e+00
1.2042655145e+00
1.2042595374e+00
1.2042540971e+00
1.2042491728e+00
1.2042447422e+00
1.2042407853e+00
1.2042372859e+00
1.2042342361e+00
1.2042316386e+00
1.2042295122e+00
1.2042278947e+00
1.2042268494e+00
1.2042264683e+00
1.2042268789e+00
1.2042282457e+00
1.2042307684e+00
1.2042346523e+00
1.2042201626e+00
1.1979150139e+00
1.1979738770e+00
1.1980574405e+00
1.1981815962e+00
1.1983438573e+00
1.1985410074e+00
1.1987692197e+00
1.1990242013e+00
1.1993013118e+00
1.1995957159e+00
1.1999025027e+00
1.2002168340e+00
1.2005340480e+00
1.2008497836e+00
1.2011600539e+00
1.2014613337e+00
1.2017505933e+00
1.2020253442e+00
1.2022836334e+00
1.2025240496e+00
1.2027456839e+00
1.2029481057e+00
1.2031313016e+00
1.2032956318e+00
1.2034417596e+00
1.2035706013e+00
1.2036832568e+00
1.2037809632e+00
1.2038650346e+00
1.2039368260e+00
1.2039976872e+00
1.2040489387e+00
1.2040918411e+00
1.2041275834e+00
1.2041572650e+00
1.2041818942e+00
1.2042023793e+00
1.2042195340e+00
1.2042340740e+00
1.2042466250e+00
1.2042577224e+00
1.2042678194e+00
1.2042772870e+00
1.2042864219e+00
1.2042954461e+00
1.2043045144e+00
1.2043137146e+00
1.2043230756e+00
1.2043325693e+00
1.2043421207e+00
1.2043516119e+00
1.2043608947e+00
1.2043697969e+00
1.2043781365e+00
1.2043857292e+00
1.2043924015e+00
1.2043979981e+00
1.2044023921e+00
1.2044054890e+00
1.2044072332e+00
1.2044076077e+00
1.2044066350e+00
1.2044043737e+00
1.2044009147e+00
1.2043963751e+00
1.2043908921e+00
1.2043846155e+00
1.2043777018e+00
1.2043703073e+00
1.2043625829e+00
1.2043546698e+00
1.2043466961e+00
1.2043387745e+00
1.2043310014e+00
1.2043234565e+00
1.2043162031e+00
1.2043092897e+00
1.2043027508e+00
1.2042966091e+00
1.2042908768e+00
1.2042855579e+00
1.2042806491e+00
1.2042761424e+00
1.2042720254e+00
1.2042682839e+00
1.2042649019e+00
1.2042618646e+00
1.2042591581e+00
1.2042567727e+00
1.2042547026e+00
1.2042529500e+00
1.2042515244e+00
1.2042504466e+00
1.2042497476e+00
1.2042494707e+00
1.2042496676e+00
1.2042503935e+00
1.2042516890e+00
1.2042535426e+00
1.2042351213e+00
1.1979975058e+00
1.1980574405e+00
1.1981405243e+00
1.1982634280e+00
1.1984237752e+00
1.1986184389e+00
1.1988436884e+00
1.1990953035e+00
1.1993687302e+00
1.1996591976e+00
1.1999618760e+00
1.2002719856e+00
1.2005849386e+00
1.2008964240e+00
1.2012025183e+00
1.2014997349e+00
1.2017850940e+00
1.2020561323e+00
1.2023109315e+00
1.2025480918e+00
1.2027667246e+00
1.2029663988e+00
1.2031471084e+00
1.2033092037e+00
1.2034533457e+00
1.2035804344e+00
1.2036915613e+00
1.2037879441e+00
1.2038708856e+00
1.2039417209e+00
1.2040017880e+00
1.2040523896e+00
1.2040947761e+00
1.2041301211e+00
1.2041595163e+00
1.2041839575e+00
1.2042043472e+00
1.2042214886e+00
1.2042360923e+00
1.2042487739e+00
1.2042600624e+00
1.2042703992e+00
1.2042801461e+00
1.2042895847e+00
1.2042989243e+00
1.2043083010e+00
1.2043177867e+00
1.2043273901e+00
1.2043370665e+00
1.2043467220e+00
1.2043562257e+00
1.2043654160e+00
1.2043741153e+00
1.2043821376e+00
1.2043893031e+00
1.2043954457e+00
1.2044004251e+00
1.2044041315e+00
1.2044064935e+00
1.2044074784e+00
1.2044070950e+00
1.2044053896e+00
1.2044024438e+00
1.2043983677e+00
1.2043932941e+00
1.2043873711e+00
1.2043807554e+00
1.2043736048e+00
1.2043660734e+00
1.2043583059e+00
1.2043504346e+00
1.2043425765e+00
1.2043348318e+00
1.2043272842e+00
1.2043200004e+00
1.2043130323e+00
1.2043064172e+00
1.2043001807e+00
1.2042943372e+00
1.2042888934e+00
1.2042838480e+00
1.2042791953e+00
1.2042749248e+00
1.2042710240e+00
1.2042674783e+00
1.2042642733e+00
1.2042613946e+00
1.2042588305e+00
1.2042565712e+00
1.2042546119e+00
1.2042529518e+00
1.2042515967e+00
1.2042505578e+00
1.2042498529e+00
1.2042495020e+00
1.2042495250e+00
1.2042499296e+00
1.2042506944e+00
1.2042517324e+00
1.2042312484e+00
1.1981214491e+00
1.1981815962e+00
1.1982634280e+00
1.1983841825e+00
1.1985415346e+00
1.1987324490e+00
1.1989532789e+00
1.1991999145e+00
1.1994678924e+00
1.1997525568e+00
1.2000491678e+00
1.2003530568e+00
1.2006597182e+00
1.2009649410e+00
1.2012648698e+00
1.2015560999e+00
1.2018357013e+00
1.2021012710e+00
1.2023509203e+00
1.2025832873e+00
1.2027974935e+00
1.2029931252e+00
1.2031701700e+00
1.2033289790e+00
1.2034701949e+00
1.2035947066e+00
1.2037035799e+00
1.2037980146e+00
1.2038792849e+00
1.2039487058e+00
1.2040075872e+00
1.2040572125e+00
1.2040988072e+00
1.2041335287e+00
1.2041624477e+00
1.2041865472e+00
1.2042067129e+00
1.2042237379e+00
1.2042383185e+00
1.2042510614e+00
1.2042624818e+00
1.2042730113e+00
1.2042829966e+00
1.2042927071e+00
1.2043023340e+00
1.2043119984e+00
1.2043217520e+00
1.2043315868e+00
1.2043414379e+00
1.2043511960e+00
1.2043607135e+00
1.2043698190e+00
1.2043783257e+00
1.2043860465e+00
1.2043928029e+00
1.2043984380e+00
1.2044028234e+00
1.2044058678e+00
1.2044075197e+00
1.2044077705e+00
1.2044066523e+00
1.2044042358e+00
1.2044006238e+00
1.2043959458e+00
1.2043903496e+00
1.2043839946e+00
1.2043770434e+00
1.2043696563e+00
1.2043619849e+00
1.2043541682e+00
1.2043463300e+00
1.2043385764e+00
1.2043309962e+00
1.2043236602e+00
1.2043166234e+00
1.2043099258e+00
1.2043035945e+00
1.2042976458e+00
1.2042920871e+00
1.2042869184e+00
1.2042821348e+00
1.2042777265e+00
1.2042736819e+00
1.2042699868e+00
1.2042666273e+00
1.2042635886e+00
1.2042608578e+00
1.2042584227e+00
1.2042562747e+00
1.2042544068e+00
1.2042528170e+00
1.2042515054e+00
1.2042504765e+00
1.2042497355e+00
1.2042492876e+00
1.2042491308e+00
1.2042492495e+00
1.2042495984e+00
1.2042500837e+00
1.2042281570e+00
1.1982841365e+00
1.1983438573e+00
1.1984237752e+00
1.1985415346e+00
1.1986948717e+00
1.1988808251e+00
1.1990958642e+00
1.1993359841e+00
1.1995968604e+00
1.1998739528e+00
1.2001626659e+00
1.2004584442e+00
1.2007569185e+00
1.2010539777e+00
1.2013458841e+00
1.2016293118e+00
1.2019014225e+00
1.2021598664e+00
1.2024028172e+00
1.2026289399e+00
1.2028373900e+00
1.2030277569e+00
1.2032000379e+00
1.2033545681e+00
1.2034919814e+00
1.2036131378e+00
1.2037190820e+00
1.2038109783e+00
1.2038900738e+00
1.2039576463e+00
1.2040149780e+00
1.2040633173e+00
1.2041038643e+00
1.2041377466e+00
1.2041660137e+00
1.2041896241e+00
1.2042094470e+00
1.2042262556e+00
1.2042407330e+00
1.2042534690e+00
1.2042649670e+00
1.2042756422e+00
1.2042858288e+00
1.2042957786e+00
1.2043056681e+00
1.2043155989e+00
1.2043256062e+00
1.2043356610e+00
1.2043456821e+00
1.2043555413e+00
1.2043650777e+00
1.2043741064e+00
1.2043824345e+00
1.2043898704e+00
1.2043962388e+00
1.2044013890e+00
1.2044052059e+00
1.2044076136e+00
1.2044085817e+00
1.2044081229e+00
1.2044062932e+00
1.2044031856e+00
1.2043989247e+00
1.2043936582e+00
1.2043875493e+00
1.2043807679e+00
1.2043734833e+00
1.2043658579e+00
1.2043580415e+00
1.2043501679e+00
1.2043423525e+00
1.2043346917e+00
1.2043272625e+00
1.2043201241e+00
1.2043133195e+00
1.2043068778e+00
1.2043008158e+00
1.2042951412e+00
1.2042898537e+00
1.2042849480e+00
1.2042804141e+00
1.2042762397e+00
1.2042724105e+00
1.2042689119e+00
1.2042657287e+00
1.2042628470e+00
1.2042602533e+00
1.2042579363e+00
1.2042558861e+00
1.2042540956e+00
1.2042525593e+00
1.2042512743e+00
1.2042502381e+00
1.2042494488e+00
1.2042489002e+00
1.2042485799e+00
1.2042484609e+00
1.2042484955e+00
1.2042486025e+00
1.2042256073e+00
1.1984821859e+00
1.1985410074e+00
1.1986184389e+00
1.1987324490e+00
1.1988808251e+00
1.1990607117e+00
1.1992686838e+00
1.1995008866e+00
1.1997531281e+00
1.2000210374e+00
1.2003001588e+00
1.2005861064e+00
1.2008746421e+00
1.2011618085e+00
1.2014439783e+00
1.2017179522e+00
1.2019809732e+00
1.2022307841e+00
1.2024656079e+00
1.2026841669e+00
1.2028856348e+00
1.2030696258e+00
1.2032361293e+00
1.2033854790e+00
1.2035182809e+00
1.2036353752e+00
1.2037377669e+00
1.2038265890e+00
1.2039030443e+00
1.2039683752e+00
1.2040238199e+00
1.2040705928e+00
1.2041098545e+00
1.2041427027e+00
1.2041701537e+00
1.2041931420e+00
1.2042125099e+00
1.2042290120e+00
1.2042433096e+00
1.2042559773e+00
1.2042674998e+00
1.2042782786e+00
1.2042886295e+00
1.2042987899e+00
1.2043089170e+00
1.2043190962e+00
1.2043293422e+00
1.2043396092e+00
1.2043497955e+00
1.2043597578e+00
1.2043693182e+00
1.2043782818e+00
1.2043864458e+00
1.2043936165e+00
1.2043996187e+00
1.2044043093e+00
1.2044075834e+00
1.2044093817e+00
1.2044096918e+00
1.2044085485e+00
1.2044060297e+00
1.2044022508e+00
1.2043973570e+00
1.2043915143e+00
1.2043849005e+00
1.2043776967e+00
1.2043700788e+00
1.2043622115e+00
1.2043542435e+00
1.2043463036e+00
1.2043384998e+00
1.2043309186e+00
1.2043236264e+00
1.2043166709e+00
1.2043100838e+00
1.2043038831e+00
1.2042980762e+00
1.2042926619e+00
1.2042876331e+00
1.2042829781e+00
1.2042786830e+00
1.2042747319e+00
1.2042711087e+00
1.2042677970e+00
1.2042647817e+00
1.2042620478e+00
1.2042595825e+00
1.2042573737e+00
1.2042554116e+00
1.2042536872e+00
1.2042521939e+00
1.2042509249e+00
1.2042498743e+00
1.2042490338e+00
1.2042483926e+00
1.2042479317e+00
1.2042476228e+00
1.2042474212e+00
1.2042472639e+00
1.2042234264e+00
1.1987116630e+00
1.1987692197e+00
1.1988436884e+00
1.1989532789e+00
1.1990958642e+00
1.1992686838e+00
1.1994684609e+00
1.1996914789e+00
1.1999337300e+00
1.2001910019e+00
1.2004590350e+00
1.2007336017e+00
1.2010106515e+00
1.2012863685e+00
1.2015572879e+00
1.2018203224e+00
1.2020728415e+00
1.2023126646e+00
1.2025381001e+00
1.2027479096e+00
1.2029413129e+00
1.2031179298e+00
1.2032777613e+00
1.2034211199e+00
1.2035485973e+00
1.2036609940e+00
1.2037592836e+00
1.2038445497e+00
1.2039179549e+00
1.2039806899e+00
1.2040339512e+00
1.2040789044e+00
1.2041166719e+00
1.2041483089e+00
1.2041747998e+00
1.2041970440e+00
1.2042158586e+00
1.2042319703e+00
1.2042460208e+00
1.2042585620e+00
1.2042700624e+00
1.2042809036e+00
1.2042913866e+00
1.2043017288e+00
1.2043120721e+00
1.2043224815e+00
1.2043329549e+00
1.2043434257e+00
1.2043537759e+00
1.2043638431e+00
1.2043734364e+00
1.2043823466e+00
1.2043903643e+00
1.2043972900e+00
1.2044029507e+00
1.2044072075e+00
1.2044099668e+00
1.2044111830e+00
1.2044108624e+00
1.2044090595e+00
1.2044058741e+00
1.2044014428e+00
1.2043959312e+00
1.2043895230e+00
1.2043824110e+00
1.2043747871e+00
1.2043668342e+00
1.2043587200e+00
1.2043505920e+00
1.2043425751e+00
1.2043347700e+00
1.2043272546e+00
1.2043200844e+00
1.2043132966e+00
1.2043069116e+00
1.2043009373e+00
1.2042953712e+00
1.2042902040e+00
1.2042854211e+00
1.2042810056e+00
1.2042769384e+00
1.2042732010e+00
1.2042697745e+00
1.2042666416e+00
1.2042637856e+00
1.2042611921e+00
1.2042588471e+00
1.2042567391e+00
1.2042548570e+00
1.2042531918e+00
1.2042517343e+00
1.2042504767e+00
1.2042494095e+00
1.2042485223e+00
1.2042478003e+00
1.2042472241e+00
1.2042467653e+00
1.2042463870e+00
1.2042460398e+00
1.2042215047e+00
1.1989681848e+00
1.1990242013e+00
1.1990953035e+00
1.1991999145e+00
1.1993359841e+00
1.1995008866e+00
1.1996914789e+00
1.1999042313e+00
1.2001353039e+00
1.2003806979e+00
1.2006363330e+00
1.2008981969e+00
1.2011624090e+00
1.2014253493e+00
1.2016836967e+00
1.2019345252e+00
1.2021753110e+00
1.2024039910e+00
1.2026189388e+00
1.2028189882e+00
1.2030033837e+00
1.2031717758e+00
1.2033241560e+00
1.2034608334e+00
1.2035823648e+00
1.2036895233e+00
1.2037832317e+00
1.2038645320e+00
1.2039345294e+00
1.2039943675e+00
1.2040451860e+00
1.2040881046e+00
1.2041241944e+00
1.2041544702e+00
1.2041798730e+00
1.2042012698e+00
1.2042194426e+00
1.2042350927e+00
1.2042488341e+00
1.2042611990e+00
1.2042726332e+00
1.2042835017e+00
1.2042940849e+00
1.2043045848e+00
1.2043151228e+00
1.2043257477e+00
1.2043364365e+00
1.2043471063e+00
1.2043576187e+00
1.2043677962e+00
1.2043774309e+00
1.2043863031e+00
1.2043941925e+00
1.2044008967e+00
1.2044062410e+00
1.2044100923e+00
1.2044123653e+00
1.2044130286e+00
1.2044121046e+00
1.2044096677e+00
1.2044058378e+00
1.2044007729e+00
1.2043946577e+00
1.2043876940e+00
1.2043800890e+00
1.2043720458e+00
1.2043637547e+00
1.2043553868e+00
1.2043470892e+00
1.2043389830e+00
1.2043311629e+00
1.2043236978e+00
1.2043166342e+00
1.2043099981e+00
1.2043037999e+00
1.2042980368e+00
1.2042926974e+00
1.2042877638e+00
1.2042832148e+00
1.2042790272e+00
1.2042751781e+00
1.2042716448e+00
1.2042684068e+00
1.2042654446e+00
1.2042627412e+00
1.2042602809e+00
1.2042580502e+00
1.2042560365e+00
1.2042542292e+00
1.2042526179e+00
1.2042511932e+00
1.2042499452e+00
1.2042488638e+00
1.2042479364e+00
1.2042471480e+00
1.2042464789e+00
1.2042459044e+00
1.2042453929e+00
1.2042449073e+00
1.2042197734e+00
1.1992470520e+00
1.1993013118e+00
1.1993687302e+00
1.1994678924e+00
1.1995968604e+00
1.1997531281e+00
1.1999337300e+00
1.2001353039e+00
1.2003542295e+00
1.2005866996e+00
1.2008288686e+00
1.2010769170e+00
1.2013271888e+00
1.2015762367e+00
1.2018209344e+00
1.2020584935e+00
1.2022865415e+00
1.2025031095e+00
1.2027066732e+00
1.2028961152e+00
1.2030707344e+00
1.2032301888e+00
1.2033744829e+00
1.2035039007e+00
1.2036189804e+00
1.2037204473e+00
1.2038091850e+00
1.2038861758e+00
1.2039524749e+00
1.2040091631e+00
1.2040573283e+00
1.2040980308e+00
1.2041322939e+00
1.2041610808e+00
1.2041852920e+00
1.2042057520e+00
1.2042232108e+00
1.2042383361e+00
1.2042517176e+00
1.2042638606e+00
1.2042751920e+00
1.2042860543e+00
1.2042967115e+00
1.2043073449e+00
1.2043180601e+00
1.2043288853e+00
1.2043397813e+00
1.2043506445e+00
1.2043613208e+00
1.2043716136e+00
1.2043813017e+00
1.2043901510e+00
1.2043979336e+00
1.2044044400e+00
1.2044094959e+00
1.2044129707e+00
1.2044147880e+00
1.2044149279e+00
1.2044134292e+00
1.2044103840e+00
1.2044059324e+00
1.2044002520e+00
1.2043935471e+00
1.2043860367e+00
1.2043779429e+00
1.2043694801e+00
1.2043608463e+00
1.2043522164e+00
1.2043437379e+00
1.2043355291e+00
1.2043276786e+00
1.2043202481e+00
1.2043132742e+00
1.2043067735e+00
1.2043007457e+00
1.2042951788e+00
1.2042900517e+00
1.2042853387e+00
1.2042810113e+00
1.2042770410e+00
1.2042733998e+00
1.2042700621e+00
1.2042670044e+00
1.2042642062e+00
1.2042616486e+00
1.2042593161e+00
1.2042571941e+00
1.2042552705e+00
1.2042535338e+00
1.2042519739e+00
1.2042505804e+00
1.2042493434e+00
1.2042482514e+00
1.2042472924e+00
1.2042464509e+00
1.2042457095e+00
1.2042450459e+00
1.2042444350e+00
1.2042438474e+00
1.2042181880e+00
1.1995433689e+00
1.1995957159e+00
1.1996591976e+00
1.1997525568e+00
1.1998739528e+00
1.2000210374e+00
1.2001910019e+00
1.2003806979e+00
1.2005866996e+00
1.2008054437e+00
1.2010332920e+00
1.2012666711e+00
1.2015021218e+00
1.2017364214e+00
1.2019666099e+00
1.2021900838e+00
1.2024045944e+00
1.2026083070e+00
1.2027997737e+00
1.2029779587e+00
1.2031421905e+00
1.2032921611e+00
1.2034278647e+00
1.2035495803e+00
1.2036578063e+00
1.2037532352e+00
1.2038366924e+00
1.2039091111e+00
1.2039714804e+00
1.2040248258e+00
1.2040701693e+00
1.2041085175e+00
1.2041408339e+00
1.2041680342e+00
1.2041909688e+00
1.2042104233e+00
1.2042271075e+00
1.2042416590e+00
1.2042546359e+00
1.2042665211e+00
1.2042777159e+00
1.2042885449e+00
1.2042992505e+00
1.2043099981e+00
1.2043208727e+00
1.2043318869e+00
1.2043429811e+00
1.2043540357e+00
1.2043648768e+00
1.2043752931e+00
1.2043850463e+00
1.2043938912e+00
1.2044015883e+00
1.2044079237e+00
1.2044127196e+00
1.2044158493e+00
1.2044172421e+00
1.2044168902e+00
1.2044148459e+00
1.2044112192e+00
1.2044061685e+00
1.2043998910e+00
1.2043926099e+00
1.2043845612e+00
1.2043759819e+00
1.2043670979e+00
1.2043581156e+00
1.2043492142e+00
1.2043405424e+00
1.2043322159e+00
1.2043243190e+00
1.2043169055e+00
1.2043100041e+00
1.2043036214e+00
1.2042977478e+00
1.2042923611e+00
1.2042874320e+00
1.2042829262e+00
1.2042788087e+00
1.2042750448e+00
1.2042716023e+00
1.2042684517e+00
1.2042655673e+00
1.2042629261e+00
1.2042605090e+00
1.2042582990e+00
1.2042562819e+00
1.2042544447e+00
1.2042527765e+00
1.2042512664e+00
1.2042499046e+00
1.2042486804e+00
1.2042475834e+00
1.2042466008e+00
1.2042457192e+00
1.2042449222e+00
1.2042441916e+00
1.2042435065e+00
1.2042428446e+00
1.2042167149e+00
1.1998521853e+00
1.1999025027e+00
1.1999618760e+00
1.2000491678e+00
1.2001626659e+00
1.2003001588e+00
1.2004590350e+00
1.2006363330e+00
1.2008288686e+00
1.2010332920e+00
1.2012462228e+00
1.2014643016e+00
1.2016843165e+00
1.2019032364e+00
1.2021183160e+00
1.2023271043e+00
1.2025275192e+00
1.2027178308e+00
1.2028967030e+00
1.2030631548e+00
1.2032165734e+00
1.2033566601e+00
1.2034834222e+00
1.2035971114e+00
1.2036982044e+00
1.2037873414e+00
1.2038653033e+00
1.2039329573e+00
1.2039912366e+00
1.2040410969e+00
1.2040835022e+00
1.2041193931e+00
1.2041496795e+00
1.2041752195e+00
1.2041968180e+00
1.2042152133e+00
1.2042310795e+00
1.2042450168e+00
1.2042575564e+00
1.2042691519e+00
1.2042801844e+00
1.2042909548e+00
1.2043016890e+00
1.2043125314e+00
1.2043235520e+00
1.2043347431e+00
1.2043460298e+00
1.2043572728e+00
1.2043682830e+00
1.2043788303e+00
1.2043886633e+00
1.2043975219e+00
1.2044051581e+00
1.2044113493e+00
1.2044159165e+00
1.2044187330e+00
1.2044197349e+00
1.2044189230e+00
1.2044163639e+00
1.2044121828e+00
1.2044065565e+00
1.2043997005e+00
1.2043918564e+00
1.2043832774e+00
1.2043742152e+00
1.2043649077e+00
1.2043555699e+00
1.2043463864e+00
1.2043375074e+00
1.2043290476e+00
1.2043210865e+00
1.2043136721e+00
1.2043068246e+00
1.2043005421e+00
1.2042948052e+00
1.2042895830e+00
1.2042848369e+00
1.2042805251e+00
1.2042766054e+00
1.2042730376e+00
1.2042697844e+00
1.2042668131e+00
1.2042640947e+00
1.2042616051e+00
1.2042593232e+00
1.2042572319e+00
1.2042553160e+00
1.2042535631e+00
1.2042519615e+00
1.2042505012e+00
1.2042491720e+00
1.2042479641e+00
1.2042468668e+00
1.2042458692e+00
1.2042449581e+00
1.2042441202e+00
1.2042433395e+00
1.2042426002e+00
1.2042418841e+00
1.2042153268e+00
1.2001686156e+00
1.2002168340e+00
1.2002719856e+00
1.2003530568e+00
1.2004584442e+00
1.2005861064e+00
1.2007336017e+00
1.2008981969e+00
1.2010769170e+00
1.2012666711e+00
1.2014643016e+00
1.2016667106e+00
1.2018708969e+00
1.2020740679e+00
1.2022736569e+00
1.2024674088e+00
1.2026533745e+00
1.2028299664e+00
1.2029959300e+00
1.2031503708e+00
1.2032927080e+00
1.2034226781e+00
1.2035402778e+00
1.2036457527e+00
1.2037395372e+00
1.2038222355e+00
1.2038945669e+00
1.2039573451e+00
1.2040114330e+00
1.2040577264e+00
1.2040971189e+00
1.2041304930e+00
1.2041586947e+00
1.2041825308e+00
1.2042027524e+00
1.2042200558e+00
1.2042350718e+00
1.2042483688e+00
1.2042604443e+00
1.2042717282e+00
1.2042825753e+00
1.2042932685e+00
1.2043040118e+00
1.2043149347e+00
1.2043260869e+00
1.2043374465e+00
1.2043489192e+00
1.2043603508e+00
1.2043715330e+00
1.2043822219e+00
1.2043921489e+00
1.2044010423e+00
1.2044086417e+00
1.2044147186e+00
1.2044190886e+00
1.2044216263e+00
1.2044222713e+00
1.2044210337e+00
1.2044179911e+00
1.2044132841e+00
1.2044071061e+00
1.2043996907e+00
1.2043912971e+00
1.2043821955e+00
1.2043726525e+00
1.2043629184e+00
1.2043532175e+00
1.2043437402e+00
1.2043346393e+00
1.2043260288e+00
1.2043179851e+00
1.2043105503e+00