# vtk DataFile Version 2.0
Blank
ASCII
DATASET STRUCTURED_GRID
DIMENSIONS 101 101 2
POINTS 20402 float
0.0000000000e+00 0.0000000000e+00 0.0000000000e+00
1.0000000000e-02 0.0000000000e+00 0.0000000000e+00
2.0000000000e-02 0.0000000000e+00 0.0000000000e+00
3.0000000000e-02 0.0000000000e+00 0.0000000000e+00
4.0000000000e-02 0.0000000000e+00 0.0000000000e+00
5.0000000000e-02 0.0000000000e+00 0.0000000000e+00
6.0000000000e-02 0.0000000000e+00 0.0000000000e+00
7.0000000000e-02 0.0000000000e+00 0.0000000000e+00
8.0000000000e-02 0.0000000000e+00 0.0000000000e+00
9.0000000000e-02 0.0000000000e+00 0.0000000000e+00
1.0000000000e-01 0.0000000000e+00 0.0000000000e+00
1.1000000000e-01 0.0000000000e+00 0.0000000000e+00
1.2000000000e-01 0.0000000000e+00 0.0000000000e+00
1.3000000000e-01 0.0000000000e+00 0.0000000000e+00
1.4000000000e-01 0.0000000000e+00 0.0000000000e+00
1.5000000000e-01 0.0000000000e+00 0.0000000000e+00
1.6000000000e-01 0.0000000000e+00 0.0000000000e+00
1.7000000000e-01 0.0000000000e+00 0.0000000000e+00
1.8000000000e-01 0.0000000000e+00 0.0000000000e+00
1.9000000000e-01 0.0000000000e+00 0.0000000000e+00
2.0000000000e-01 0.0000000000e+00 0.0000000000e+00
2.1000000000e-01 0.0000000000e+00 0.0000000000e+00
2.2000000000e-01 0.0000000000e+00 0.0000000000e+00
2.3000000000e-01 0.0000000000e+00 0.0000000000e+00
2.4000000000e-01 0.0000000000e+00 0.0000000000e+00
2.5000000000e-01 0.0000000000e+00 0.0000000000e+00
2.6000000000e-01 0.0000000000e+00 0.0000000000e+00
2.7000000000e-01 0.0000000000e+00 0.0000000000e+00
2.8000000000e-01 0.0000000000e+00 0.0000000000e+00
2.9000000000e-01 0.0000000000e+00 0.0000000000e+00
3.0000000000e-01 0.0000000000e+00 0.0000000000e+00
3.1000000000e-01 0.0000000000e+00 0.0000000000e+00
3.2000000000e-01 0.0000000000e+00 0.0000000000e+00
3.3000000000e-01 0.0000000000e+00 0.0000000000e+00
3.4000000000e-01 0.0000000000e+00 0.0000000000e+00
3.5000000000e-01 0.0000000000e+00 0.0000000000e+00
3.6000000000e-01 0.0000000000e+00 0.0000000000e+00
3.7000000000e-01 0.0000000000e+00 0.0000000000e+00
3.8000000000e-01 0.0000000000e+00 0.0000000000e+00
3.9000000000e-01 0.0000000000e+00 0.0000000000e+00
4.0000000000e-01 0.0000000000e+00 0.0000000000e+00
4.1000000000e-01 0.0000000000e+00 0.0000000000e+00
4.2000000000e-01 0.0000000000e+00 0.0000000000e+00
4.3000000000e-01 0.0000000000e+00 0.0000000000e+00
4.4000000000e-01 0.0000000000e+00 0.0000000000e+00
4.5000000000e-01 0.0000000000e+00 0.0000000000e+00
4.6000000000e-01 0.0000000000e+00 0.0000000000e+00
4.7000000000e-01 0.0000000000e+00 0.0000000000e+00
4.8000000000e-01 0.0000000000e+00 0.0000000000e+00
4.9000000000e-01 0.0000000000e+00 0.0000000000e+00
5.0000000000e-01 0.0000000000e+00 0.0000000000e+00
5.1000000000e-01 0.0000000000e+00 0.0000000000e+00
5.2000000000e-01 0.0000000000e+00 0.0000000000e+00
5.3000000000e-01 0.0000000000e+00 0.0000000000e+00
5.4000000000e-01 0.0000000000e+00 0.0000000000e+00
5.5000000000e-01 0.0000000000e+00 0.0000000000e+00
5.6000000000e-01 0.0000000000e+00 0.0000000000e+00
5.7000000000e-01 0.0000000000e+00 0.0000000000e+00
5.8000000000e-01 0.0000000000e+00 0.0000000000e+00
5.9000000000e-01 0.0000000000e+00 0.0000000000e+00
6.0000000000e-01 0.0000000000e+00 0.0000000000e+00
6.1000000000e-01 0.0000000000e+00 0.0000000000e+00
6.2000000000e-01 0.0000000000e+00 0.0000000000e+00
6.3000000000e-01 0.0000000000e+00 0.0000000000e+00
6.4000000000e-01 0.0000000000e+00 0.0000000000e+00
6.5000000000e-01 0.0000000000e+00 0.0000000000e+00
6.6000000000e-01 0.0000000000e+00 0.0000000000e+00
6.7000000000e-01 0.0000000000e+00 0.0000000000e+00
6.8000000000e-01 0.0000000000e+00 0.0000000000e+00
6.9000000000e-01 0.0000000000e+00 0.0000000000e+00
7.0000000000e-01 0.0000000000e+00 0.0000000000e+00
7.1000000000e-01 0.0000000000e+00 0.0000000000e+00
7.2000000000e-01 0.0000000000e+00 0.0000000000e+00
7.3000000000e-01 0.0000000000e+00 0.0000000000e+00
7.4000000000e-01 0.0000000000e+00 0.0000000000e+00
7.5000000000e-01 0.0000000000e+00 0.0000000000e+00
7.6000000000e-01 0.0000000000e+00 0.0000000000e+00
7.7000000000e-01 0.0000000000e+00 0.0000000000e+00
7.8000000000e-01 0.0000000000e+00 0.0000000000e+00
7.9000000000e-01 0.0000000000e+00 0.0000000000e+00
8.0000000000e-01 0.0000000000e+00 0.0000000000e+00
8.1000000000e-01 0.0000000000e+00 0.0000000000e+00
8.2000000000e-01 0.0000000000e+00 0.0000000000e+00
8.3000000000e-01 0.0000000000e+00 0.0000000000e+00
8.4000000000e-01 0.0000000000e+00 0.0000000000e+00
8.5000000000e-01 0.0000000000e+00 0.0000000000e+00
8.6000000000e-01 0.0000000000e+00 0.0000000000e+00
8.7000000000e-01 0.0000000000e+00 0.0000000000e+00
8.8000000000e-01 0.0000000000e+00 0.0000000000e+00
8.9000000000e-01 0.0000000000e+00 0.0000000000e+00
9.0000000000e-01 0.0000000000e+00 0.0000000000e+00
9.1000000000e-01 0.0000000000e+00 0.0000000000e+00
9.2000000000e-01 0.0000000000e+00 0.0000000000e+00
9.3000000000e-01 0.0000000000e+00 0.0000000000e+00
9.4000000000e-01 0.0000000000e+00 0.0000000000e+00
9.5000000000e-01 0.0000000000e+00 0.0000000000e+00
9.6000000000e-01 0.0000000000e+00 0.0000000000e+00
9.7000000000e-01 0.0000000000e+00 0.0000000000e+00
9.8000000000e-01 0.0000000000e+00 0.0000000000e+00
9.9000000000e-01 0.0000000000e+00 0.0000000000e+00
1.0000000000e+00 0.0000000000e+00 0.0000000000e+00
0.0000000000e+00 1.0000000000e-02 0.0000000000e+00
1.0000000000e-02 1.0000000000e-02 0.0000000000e+00
2.0000000000e-02 1.0000000000e-02 0.0000000000e+00
3.0000000000e-02 1.0000000000e-02 0.0000000000e+00
4.0000000000e-02 1.0000000000e-02 0.0000000000e+00
5.0000000000e-02 1.0000000000e-02 0.0000000000e+00
6.0000000000e-02 1.0000000000e-02 0.0000000000e+00
7.0000000000e-02 1.0000000000e-02 0.0000000000e+00
8.0000000000e-02 1.0000000000e-02 0.0000000000e+00
9.0000000000e-02 1.0000000000e-02 0.0000000000e+00
1.0000000000e-01 1.0000000000e-02 0.0000000000e+00
1.1000000000e-01 1.0000000000e-02 0.0000000000e+00
1.2000000000e-01 1.0000000000e-02 0.0000000000e+00
1.3000000000e-01 1.0000000000e-02 0.0000000000e+00
1.4000000000e-01 1.0000000000e-02 0.0000000000e+00
1.5000000000e-01 1.0000000000e-02 0.0000000000e+00
1.6000000000e-01 1.0000000000e-02 0.0000000000e+00
1.7000000000e-01 1.0000000000e-02 0.0000000000e+00
1.8000000000e-01 1.0000000000e-02 0.0000000000e+00
1.9000000000e-01 1.0000000000e-02 0.0000000000e+00
2.0000000000e-01 1.0000000000e-02 0.0000000000e+00
2.1000000000e-01 1.0000000000e-02 0.0000000000e+00
2.2000000000e-01 1.0000000000e-02 0.0000000000e+00
2.3000000000e-01 1.0000000000e-02 0.0000000000e+00
2.4000000000e-01 1.0000000000e-02 0.0000000000e+00
2.5000000000e-01 1.0000000000e-02 0.0000000000e+00
2.6000000000e-01 1.0000000000e-02 0.0000000000e+00
2.7000000000e-01 1.0000000000e-02 0.0000000000e+00
2.8000000000e-01 1.0000000000e-02 0.0000000000e+00
2.9000000000e-01 1.0000000000e-02 0.0000000000e+00
3.0000000000e-01 1.0000000000e-02 0.0000000000e+00
3.1000000000e-01 1.0000000000e-02 0.0000000000e+00
3.2000000000e-01 1.0000000000e-02 0.0000000000e+00
3.3000000000e-01 1.0000000000e-02 0.0000000000e+00
3.4000000000e-01 1.0000000000e-02 0.0000000000e+00
3.5000000000e-01 1.0000000000e-02 0.0000000000e+00
3.6000000000e-01 1.0000000000e-02 0.0000000000e+00
3.7000000000e-01 1.0000000000e-02 0.0000000000e+00
3.8000000000e-01 1.0000000000e-02 0.0000000000e+00
3.9000000000e-01 1.0000000000e-02 0.0000000000e+00
4.0000000000e-01 1.0000000000e-02 0.0000000000e+00
4.1000000000e-01 1.0000000000e-02 0.0000000000e+00
4.2000000000e-01 1.0000000000e-02 0.0000000000e+00
4.3000000000e-01 1.0000000000e-02 0.0000000000e+00
4.4000000000e-01 1.0000000000e-02 0.0000000000e+00
4.5000000000e-01 1.0000000000e-02 0.0000000000e+00
4.6000000000e-01 1.0000000000e-02 0.0000000000e+00
4.7000000000e-01 1.0000000000e-02 0.0000000000e+00
4.8000000000e-01 1.0000000000e-02 0.0000000000e+00
4.9000000000e-01 1.0000000000e-02 0.0000000000e+00
5.0000000000e-01 1.0000000000e-02 0.0000000000e+00
5.1000000000e-01 1.0000000000e-02 0.0000000000e+00
5.2000000000e-01 1.0000000000e-02 0.0000000000e+00
5.3000000000e-01 1.0000000000e-02 0.0000000000e+00
5.4000000000e-01 1.0000000000e-02 0.0000000000e+00
5.5000000000e-01 1.0000000000e-02 0.0000000000e+00
5.6000000000e-01 1.0000000000e-02 0.0000000000e+00
5.7000000000e-01 1.0000000000e-02 0.0000000000e+00
5.8000000000e-01 1.0000000000e-02 0.0000000000e+00
5.9000000000e-01 1.0000000000e-02 0.0000000000e+00
6.0000000000e-01 1.0000000000e-02 0.0000000000e+00
6.1000000000e-01 1.0000000000e-02 0.0000000000e+00
6.2000000000e-01 1.0000000000e-02 0.0000000000e+00
6.3000000000e-01 1.0000000000e-02 0.0000000000e+00
6.4000000000e-01 1.0000000000e-02 0.0000000000e+00
6.5000000000e-01 1.0000000000e-02 0.0000000000e+00
6.6000000000e-01 1.0000000000e-02 0.0000000000e+00
6.7000000000e-01 1.0000000000e-02 0.0000000000e+00
6.8000000000e-01 1.0000000000e-02 0.0000000000e+00
6.9000000000e-01 1.0000000000e-02 0.0000000000e+00
7.0000000000e-01 1.0000000000e-02 0.0000000000e+00
7.1000000000e-01 1.0000000000e-02 0.0000000000e+00
7.2000000000e-01 1.0000000000e-02 0.0000000000e+00
7.3000000000e-01 1.0000000000e-02 0.0000000000e+00
7.4000000000e-01 1.0000000000e-02 0.0000000000e+00
7.5000000000e-01 1.0000000000e-02 0.0000000000e+00
7.6000000000e-01 1.0000000000e-02 0.0000000000e+00
7.7000000000e-01 1.0000000000e-02 0.0000000000e+00
7.8000000000e-01 1.0000000000e-02 0.0000000000e+00
7.9000000000e-01 1.0000000000e-02 0.0000000000e+00
8.0000000000e-01 1.0000000000e-02 0.0000000000e+00
8.1000000000e-01 1.0000000000e-02 0.0000000000e+00
8.2000000000e-01 1.0000000000e-02 0.0000000000e+00
8.3000000000e-01 1.0000000000e-02 0.0000000000e+00
8.4000000000e-01 1.0000000000e-02 0.0000000000e+00
8.5000000000e-01 1.0000000000e-02 0.0000000000e+00
8.6000000000e-01 1.0000000000e-02 0.0000000000e+00
8.7000000000e-01 1.0000000000e-02 0.0000000000e+00
8.8000000000e-01 1.0000000000e-02 0.0000000000e+00
8.9000000000e-01 1.0000000000e-02 0.0000000000e+00
9.0000000000e-01 1.0000000000e-02 0.0000000000e+00
9.1000000000e-01 1.0000000000e-02 0.0000000000e+00
9.2000000000e-01 1.0000000000e-02 0.0000000000e+00
[...]
CELL_DATA 10000

SCALARS massDensity float
LOOKUP_TABLE default
1.2003440902e+00
1.2003505937e+00
1.2003848080e+00
1.2004351616e+00
1.2005011936e+00
1.2005822005e+00
1.2006772581e+00
1.2007852519e+00
1.2009049116e+00
1.2010348438e+00
1.2011735652e+00
1.2013195324e+00
1.2014711736e+00
1.2016269149e+00
1.2017852094e+00
1.2019445598e+00
1.2021035425e+00
1.2022608256e+00
1.2024151867e+00
1.2025655247e+00
1.2027108714e+00
1.2028503957e+00
1.2029834090e+00
1.2031093633e+00
1.2032278495e+00
1.2033385909e+00
1.2034414366e+00
1.2035363505e+00
1.2036234016e+00
1.2037027504e+00
1.2037746379e+00
1.2038393705e+00
1.2038973091e+00
1.2039488550e+00
1.2039944387e+00
1.2040345087e+00
1.2040695216e+00
1.2040999331e+00
1.2041261907e+00
1.2041487267e+00
1.2041679542e+00
1.2041842621e+00
1.2041980131e+00
1.2042095416e+00
1.2042191529e+00
1.2042271233e+00
1.2042337004e+00
1.2042391046e+00
1.2042435300e+00
1.2042471471e+00
1.2042501037e+00
1.2042525280e+00
1.2042545298e+00
1.2042562034e+00
1.2042576286e+00
1.2042588738e+00
1.2042599963e+00
1.2042610452e+00
1.2042620616e+00
1.2042630807e+00
1.2042641323e+00
1.2042652423e+00
1.2042664326e+00
1.2042677227e+00
1.2042691292e+00
1.2042706676e+00
1.2042723508e+00
1.2042741911e+00
1.2042761990e+00
1.2042783844e+00
1.2042807555e+00
1.2042833200e+00
1.2042860840e+00
1.2042890530e+00
1.2042922307e+00
1.2042956204e+00
1.2042992232e+00
1.2043030398e+00
1.2043070688e+00
1.2043113082e+00
1.2043157538e+00
1.2043204009e+00
1.2043252424e+00
1.2043302702e+00
1.2043354738e+00
1.2043408406e+00
1.2043463547e+00
1.2043519965e+00
1.2043577411e+00
1.2043635577e+00
1.2043694063e+00
1.2043752371e+00
1.2043809854e+00
1.2043865676e+00
1.2043918718e+00
1.2043967439e+00
1.2044009647e+00
1.2044042203e+00
1.2044060766e+00
1.2044318547e+00
1.2003505937e+00
1.2003555813e+00
1.2003890035e+00
1.2004389192e+00
1.2005046897e+00
1.2005855057e+00
1.2006803815e+00
1.2007881717e+00
1.2009075913e+00
1.2010372447e+00
1.2011756509e+00
1.2013212752e+00
1.2014725544e+00
1.2016279275e+00
1.2017858587e+00
1.2019448648e+00
1.2021035339e+00
1.2022605472e+00
1.2024146925e+00
1.2025648799e+00
1.2027101482e+00
1.2028496741e+00
1.2029827721e+00
1.2031088975e+00
1.2032276404e+00
1.2033387230e+00
1.2034419895e+00
1.2035373989e+00
1.2036250120e+00
1.2037049817e+00
1.2037775385e+00
1.2038429796e+00
1.2039016550e+00
1.2039539558e+00
1.2040003025e+00
1.2040411342e+00
1.2040768985e+00
1.2041080436e+00
1.2041350099e+00
1.2041582243e+00
1.2041780949e+00
1.2041950071e+00
1.2042093209e+00
1.2042213687e+00
1.2042314548e+00
1.2042398549e+00
1.2042468167e+00
1.2042525605e+00
1.2042572813e+00
1.2042611498e+00
1.2042643147e+00
1.2042669044e+00
1.2042690293e+00
1.2042707836e+00
1.2042722475e+00
1.2042734885e+00
1.2042745640e+00
1.2042755216e+00
1.2042764020e+00
1.2042772386e+00
1.2042780604e+00
1.2042788909e+00
1.2042797509e+00
1.2042806574e+00
1.2042816258e+00
1.2042826685e+00
1.2042837973e+00
1.2042850216e+00
1.2042863506e+00
1.2042877916e+00
1.2042893517e+00
1.2042910364e+00
1.2042928510e+00
1.2042947996e+00
1.2042968857e+00
1.2042991116e+00
1.2043014794e+00
1.2043039898e+00
1.2043066433e+00
1.2043094390e+00
1.2043123760e+00
1.2043154517e+00
1.2043186638e+00
1.2043220082e+00
1.2043254805e+00
1.2043290744e+00
1.2043327827e+00
1.2043365957e+00
1.2043405014e+00
1.2043444844e+00
1.2043485256e+00
1.2043526005e+00
1.2043566790e+00
1.2043607234e+00
1.2043646879e+00
1.2043685167e+00
1.2043721472e+00
1.2043755212e+00
1.2043786273e+00
1.2044076925e+00
1.2003848080e+00
1.2003890035e+00
1.2004217210e+00
1.2004709533e+00
1.2005360157e+00
1.2006160655e+00
1.2007101011e+00
1.2008169694e+00
1.2009353888e+00
1.2010639686e+00
1.2012012392e+00
1.2013456758e+00
1.2014957296e+00
1.2016498508e+00
1.2018065185e+00
1.2019642602e+00
1.2021216777e+00
1.2022774617e+00
1.2024304114e+00
1.2025794438e+00
1.2027236066e+00
1.2028620806e+00
1.2029941862e+00
1.2031193802e+00
1.2032372554e+00
1.2033475333e+00
1.2034500583e+00
1.2035447868e+00
1.2036317782e+00
1.2037111814e+00
1.2037832245e+00
1.2038482004e+00
1.2039064561e+00
1.2039583785e+00
1.2040043852e+00
1.2040449116e+00
1.2040804029e+00
1.2041113040e+00
1.2041380534e+00
1.2041610756e+00
1.2041807769e+00
1.2041975412e+00
1.2042117267e+00
1.2042236648e+00
1.2042336582e+00
1.2042419814e+00
1.2042488808e+00
1.2042545756e+00
1.2042592594e+00
1.2042631017e+00
1.2042662496e+00
1.2042688304e+00
1.2042709528e+00
1.2042727099e+00
1.2042741801e+00
1.2042754300e+00
1.2042765150e+00
1.2042774821e+00
1.2042783700e+00
1.2042792116e+00
1.2042800340e+00
1.2042808603e+00
1.2042817095e+00
1.2042825983e+00
1.2042835404e+00
1.2042845482e+00
1.2042856317e+00
1.2042868004e+00
1.2042880619e+00
1.2042894234e+00
1.2042908907e+00
1.2042924694e+00
1.2042941635e+00
1.2042959771e+00
1.2042979129e+00
1.2042999733e+00
1.2043021596e+00
1.2043044730e+00
1.2043069135e+00
1.2043094810e+00
1.2043121744e+00
1.2043149925e+00
1.2043179332e+00
1.2043209942e+00
1.2043241722e+00
1.2043274637e+00
1.2043308637e+00
1.2043343663e+00
1.2043379641e+00
1.2043416480e+00
1.2043454064e+00
1.2043492259e+00
1.2043530908e+00
1.2043569839e+00
1.2043608882e+00
1.2043647918e+00
1.2043686971e+00
1.2043726431e+00
1.2043767502e+00
1.2044072933e+00
1.2004351616e+00
1.2004389192e+00
1.2004709533e+00
1.2005193665e+00
1.2005834721e+00
1.2006624244e+00
1.2007552198e+00
1.2008607118e+00
1.2009776264e+00
1.2011045883e+00
1.2012401420e+00
1.2013827826e+00
1.2015309782e+00
1.2016832005e+00
1.2018379455e+00
1.2019937615e+00
1.2021492658e+00
1.2023031674e+00
1.2024542783e+00
1.2026015305e+00
1.2027439807e+00
1.2028808207e+00
1.2030113763e+00
1.2031351109e+00
1.2032516193e+00
1.2033606257e+00
1.2034619734e+00
1.2035556185e+00
1.2036416167e+00
1.2037201147e+00
1.2037913355e+00
1.2038555682e+00
1.2039131539e+00
1.2039644756e+00
1.2040099449e+00
1.2040499930e+00
1.2040850599e+00
1.2041155865e+00
1.2041420068e+00
1.2041647418e+00
1.2041841941e+00
1.2042007444e+00
1.2042147480e+00
1.2042265333e+00
1.2042364006e+00
1.2042446220e+00
1.2042514415e+00
1.2042570760e+00
1.2042617170e+00
1.2042655318e+00
1.2042686657e+00
1.2042712436e+00
1.2042733728e+00
1.2042751440e+00
1.2042766343e+00
1.2042779079e+00
1.2042790192e+00
1.2042800131e+00
1.2042809272e+00
1.2042817925e+00
1.2042826353e+00
1.2042834767e+00
1.2042843353e+00
1.2042852259e+00
1.2042861618e+00
1.2042871535e+00
1.2042882109e+00
1.2042893418e+00
1.2042905534e+00
1.2042918517e+00
1.2042932420e+00
1.2042947286e+00
1.2042963154e+00
1.2042980052e+00
1.2042998007e+00
1.2043017034e+00
1.2043037146e+00
1.2043058349e+00
1.2043080645e+00
1.2043104032e+00
1.2043128506e+00
1.2043154056e+00
1.2043180674e+00
1.2043208347e+00
1.2043237061e+00
1.2043266800e+00
1.2043297545e+00
1.2043329273e+00
1.2043361956e+00
1.2043395563e+00
1.2043430057e+00
1.2043465404e+00
1.2043501576e+00
1.2043538571e+00
1.2043576446e+00
1.2043615367e+00
1.2043655724e+00
1.2043698303e+00
1.2043744596e+00
1.2044051696e+00
1.2005011936e+00
1.2005046897e+00
1.2005360157e+00
1.2005834721e+00
1.2006463908e+00
1.2007239364e+00
1.2008151183e+00
1.2009188027e+00
1.2010337348e+00
1.2011585576e+00
1.2012918407e+00
1.2014321009e+00
1.2015778340e+00
1.2017275347e+00
1.2018797269e+00
1.2020329806e+00
1.2021859386e+00
1.2023373290e+00
1.2024859855e+00
1.2026308551e+00
1.2027710115e+00
1.2029056567e+00
1.2030341282e+00
1.2031558949e+00
1.2032705583e+00
1.2033778437e+00
1.2034775964e+00
1.2035697702e+00
1.2036544196e+00
1.2037316859e+00
1.2038017885e+00
1.2038650099e+00
1.2039216860e+00
1.2039721924e+00
1.2040169350e+00
1.2040563378e+00
1.2040908349e+00
1.2041208610e+00
1.2041468442e+00
1.2041692001e+00
1.2041883263e+00
1.2042045986e+00
1.2042183679e+00
1.2042299585e+00
1.2042396670e+00
1.2042477617e+00
1.2042544832e+00
1.2042600455e+00
1.2042646367e+00
1.2042684217e+00
1.2042715426e+00
1.2042741222e+00
1.2042762650e+00
1.2042780596e+00
1.2042795806e+00
1.2042808907e+00
1.2042820417e+00
1.2042830772e+00
1.2042840325e+00
1.2042849376e+00
1.2042858166e+00
1.2042866899e+00
1.2042875740e+00
1.2042884831e+00
1.2042894286e+00
1.2042904205e+00
1.2042914671e+00
1.2042925754e+00
1.2042937514e+00
1.2042950003e+00
1.2042963262e+00
1.2042977328e+00
1.2042992228e+00
1.2043007988e+00
1.2043024621e+00
1.2043042142e+00
1.2043060556e+00
1.2043079867e+00
1.2043100074e+00
1.2043121178e+00
1.2043143173e+00
1.2043166058e+00
1.2043189830e+00
1.2043214489e+00
1.2043240036e+00
1.2043266477e+00
1.2043293820e+00
1.2043322076e+00
1.2043351262e+00
1.2043381402e+00
1.2043412527e+00
1.2043444688e+00
1.2043477962e+00
1.2043512475e+00
1.2043548429e+00
1.2043586162e+00
1.2043626218e+00
1.2043669473e+00
1.2043717293e+00
1.2044016656e+00
1.2005822005e+00
1.2005855057e+00
1.2006160655e+00
1.2006624244e+00
1.2007239364e+00
1.2007997874e+00
1.2008890051e+00
1.2009904796e+00
1.2011029784e+00
1.2012251738e+00
1.2013556616e+00
1.2014929921e+00
1.2016356895e+00
1.2017822828e+00
1.2019313238e+00
1.2020814155e+00
1.2022312260e+00
1.2023795126e+00
1.2025251301e+00
1.2026670493e+00
1.2028043599e+00
1.2029362815e+00
1.2030621617e+00
1.2031814809e+00
1.2032938451e+00
1.2033989853e+00
1.2034967465e+00
1.2035870832e+00
1.2036700456e+00
1.2037457723e+00
1.2038144757e+00
1.2038764328e+00
1.2039319713e+00
1.2039814599e+00
1.2040252958e+00
1.2040638955e+00
1.2040976848e+00
1.2041270909e+00
1.2041525344e+00
1.2041744240e+00
1.2041931506e+00
1.2042090837e+00
1.2042225687e+00
1.2042339242e+00
1.2042434419e+00
1.2042513853e+00
1.2042579909e+00
1.2042634683e+00
1.2042680021e+00
1.2042717532e+00
1.2042748609e+00
1.2042774444e+00
1.2042796056e+00
1.2042814301e+00
1.2042829902e+00
1.2042843459e+00
1.2042855472e+00
1.2042866351e+00
1.2042876436e+00
1.2042886003e+00
1.2042895282e+00
1.2042904455e+00
1.2042913679e+00
1.2042923076e+00
1.2042932753e+00
1.2042942792e+00
1.2042953267e+00
1.2042964236e+00
1.2042975748e+00
1.2042987842e+00
1.2043000554e+00
1.2043013906e+00
1.2043027920e+00
1.2043042610e+00
1.2043057984e+00
1.2043074049e+00
1.2043090805e+00
1.2043108252e+00
1.2043126387e+00
1.2043145208e+00
1.2043164714e+00
1.2043184906e+00
1.2043205789e+00
1.2043227373e+00
1.2043249674e+00
1.2043272716e+00
1.2043296533e+00
1.2043321167e+00
1.2043346673e+00
1.2043373121e+00
1.2043400601e+00
1.2043429229e+00
1.2043459159e+00
1.2043490602e+00
1.2043523851e+00
1.2043559317e+00
1.2043597583e+00
1.2043639468e+00
1.2043686090e+00
1.2043970974e+00
1.2006772581e+00
1.2006803815e+00
1.2007101011e+00
1.2007552198e+00
1.2008151183e+00
1.2008890051e+00
1.2009759357e+00
1.2010748256e+00
1.2011844754e+00
1.2013035875e+00
1.2014307956e+00
1.2015646831e+00
1.2017038143e+00
1.2018467521e+00
1.2019920879e+00
1.2021384565e+00
1.2022845625e+00
1.2024291907e+00
1.2025712272e+00
1.2027096649e+00
1.2028436177e+00
1.2029723209e+00
1.2030951394e+00
1.2032115625e+00
1.2033212062e+00
1.2034238045e+00
1.2035192062e+00
1.2036073634e+00
1.2036883253e+00
1.2037622242e+00
1.2038292675e+00
1.2038897237e+00
1.2039439131e+00
1.2039921945e+00
1.2040349564e+00
1.2040726055e+00
1.2041055584e+00
1.2041342329e+00
1.2041590410e+00
1.2041803826e+00
1.2041986407e+00
1.2042141773e+00
1.2042273305e+00
1.2042384127e+00
1.2042477089e+00
1.2042554774e+00
1.2042619490e+00
1.2042673287e+00
1.2042717962e+00
1.2042755084e+00
1.2042786004e+00
1.2042811883e+00
1.2042833698e+00
1.2042852282e+00
1.2042868324e+00
1.2042882400e+00
1.2042894982e+00
1.2042906462e+00
1.2042917155e+00
1.2042927321e+00
1.2042937168e+00
1.2042946867e+00
1.2042956553e+00
1.2042966339e+00
1.2042976313e+00
1.2042986550e+00
1.2042997106e+00
1.2043008030e+00
1.2043019358e+00
1.2043031120e+00
1.2043043339e+00
1.2043056029e+00
1.2043069202e+00
1.2043082862e+00
1.2043097011e+00
1.2043111647e+00
1.2043126766e+00
1.2043142362e+00
1.2043158429e+00
1.2043174965e+00
1.2043191969e+00
1.2043209445e+00
1.2043227404e+00
1.2043245865e+00
1.2043264857e+00
1.2043284422e+00
1.2043304612e+00
1.2043325497e+00
1.2043347164e+00
1.2043369721e+00
1.2043393301e+00
1.2043418069e+00
1.2043444231e+00
1.2043472051e+00
1.2043501864e+00
1.2043534101e+00
1.2043569321e+00
1.2043608231e+00
1.2043651700e+00
1.2043917304e+00
1.2007852519e+00
1.2007881717e+00
1.2008169694e+00
1.2008607118e+00
1.2009188027e+00
1.2009904796e+00
1.2010748256e+00
1.2011707914e+00
1.2012772103e+00
1.2013928258e+00
1.2015163086e+00
1.2016462870e+00
1.2017813640e+00
1.2019201482e+00
1.2020612688e+00
1.2022034041e+00
1.2023452927e+00
1.2024857581e+00
1.2026237148e+00
1.2027581873e+00
1.2028883113e+00
1.2030133457e+00
1.2031326697e+00
1.2032457879e+00
1.2033523236e+00
1.2034520186e+00
1.2035447222e+00
1.2036303882e+00
1.2037090611e+00
1.2037808696e+00
1.2038460130e+00
1.2039047527e+00
1.2039573983e+00
1.2040042997e+00
1.2040458340e+00
1.2040823976e+00
1.2041143960e+00
1.2041422367e+00
1.2041663212e+00
1.2041870398e+00
1.2042047660e+00
1.2042198530e+00
1.2042326306e+00
1.2042434034e+00
1.2042524495e+00
1.2042600201e+00
1.2042663403e+00
1.2042716087e+00
1.2042760005e+00
1.2042796672e+00
1.2042827399e+00
1.2042853298e+00
1.2042875317e+00
1.2042894247e+00
1.2042910750e+00
1.2042925370e+00
1.2042938555e+00
1.2042950669e+00
1.2042962009e+00
1.2042972810e+00
1.2042983265e+00
1.2042993524e+00
1.2043003710e+00
1.2043013916e+00
1.2043024221e+00
1.2043034683e+00
1.2043045347e+00
1.2043056249e+00
1.2043067414e+00
1.2043078862e+00
1.2043090602e+00
1.2043102643e+00
1.2043114983e+00
1.2043127620e+00
1.2043140546e+00
1.2043153755e+00
1.2043167233e+00
1.2043180973e+00
1.2043194964e+00
1.2043209202e+00
1.2043223686e+00
1.2043238424e+00
1.2043253430e+00
1.2043268732e+00
1.2043284369e+00
1.2043300396e+00
1.2043316883e+00
1.2043333922e+00
1.2043351623e+00
1.2043370123e+00
1.2043389588e+00
1.2043410215e+00
1.2043432244e+00
1.2043455963e+00
1.2043481723e+00
1.2043509943e+00
1.2043541129e+00
1.2043575871e+00
1.2043614832e+00
1.2043857790e+00
1.2009049116e+00
1.2009075913e+00
1.2009353888e+00
1.2009776264e+00
1.2010337348e+00
1.2011029784e+00
1.2011844754e+00
1.2012772103e+00
1.2013800592e+00
1.2014918049e+00
1.2016111664e+00
1.2017368146e+00
1.2018674034e+00
1.2020015841e+00
1.2021380356e+00
1.2022754765e+00
1.2024126911e+00
1.2025485378e+00
1.2026819703e+00
1.2028120409e+00
1.2029379161e+00
1.2030588750e+00
1.2031743183e+00
1.2032837629e+00
1.2033868448e+00
1.2034833102e+00
1.2035730138e+00
1.2036559071e+00
1.2037320335e+00
1.2038015147e+00
1.2038645440e+00
1.2039213724e+00
1.2039723006e+00
1.2040176661e+00
1.2040578352e+00
1.2040931918e+00
1.2041241299e+00
1.2041510446e+00
1.2041743264e+00
1.2041943542e+00
1.2042114910e+00
1.2042260802e+00
1.2042384420e+00
1.2042488725e+00
1.2042576414e+00
1.2042649927e+00
1.2042711439e+00
1.2042762880e+00
1.2042805935e+00
1.2042842070e+00
1.2042872542e+00
1.2042898423e+00
1.2042920614e+00
1.2042939872e+00
1.2042956821e+00
1.2042971978e+00
1.2042985758e+00
1.2042998503e+00
1.2043010482e+00
1.2043021914e+00
1.2043032968e+00
1.2043043780e+00
1.2043054452e+00
1.2043065067e+00
1.2043075686e+00
1.2043086354e+00
1.2043097105e+00
1.2043107962e+00
1.2043118940e+00
1.2043130046e+00
1.2043141283e+00
1.2043152644e+00
1.2043164124e+00
1.2043175709e+00
1.2043187386e+00
1.2043199139e+00
1.2043210952e+00
1.2043222809e+00
1.2043234701e+00
1.2043246617e+00
1.2043258561e+00
1.2043270538e+00
1.2043282569e+00
1.2043294686e+00
1.2043306937e+00
1.2043319388e+00
1.2043332123e+00
1.2043345248e+00
1.2043358894e+00
1.2043373218e+00
1.2043388406e+00
1.2043404676e+00
1.2043422286e+00
1.2043441533e+00
1.2043462763e+00
1.2043486372e+00
1.2043512804e+00
1.2043542547e+00
1.2043576103e+00
1.2043794143e+00
1.2010348438e+00
1.2010372447e+00
1.2010639686e+00
1.2011045883e+00
1.2011585576e+00
1.2012251738e+00
1.2013035875e+00
1.2013928258e+00
1.2014918049e+00
1.2015993576e+00
1.2017142479e+00
1.2018352010e+00
1.2019609177e+00
1.2020901044e+00
1.2022214857e+00
1.2023538320e+00
1.2024859689e+00
1.2026168009e+00
1.2027453162e+00
1.2028706053e+00
1.2029918607e+00
1.2031083902e+00
1.2032196121e+00
1.2033250619e+00
1.2034243847e+00
1.2035173365e+00
1.2036037734e+00
1.2036836490e+00
1.2037570016e+00
1.2038239491e+00
1.2038846752e+00
1.2039394227e+00
1.2039884800e+00
1.2040321736e+00
1.2040708563e+00
1.2041048995e+00
1.2041346838e+00
1.2041605917e+00
1.2041830007e+00
1.2042022778e+00
1.2042187744e+00
1.2042328227e+00
1.2042447329e+00
1.2042547909e+00
1.2042632580e+00
1.2042703692e+00
1.2042763351e+00
1.2042813409e+00
1.2042855493e+00
1.2042891003e+00
1.2042921147e+00
1.2042946943e+00
1.2042969252e+00
1.2042988786e+00
1.2043006137e+00
1.2043021783e+00
1.2043036116e+00
1.2043049444e+00
1.2043062018e+00
1.2043074030e+00
1.2043085633e+00
1.2043096941e+00
1.2043108044e+00
1.2043119007e+00
1.2043129877e+00
1.2043140687e+00
1.2043151458e+00
1.2043162203e+00
1.2043172925e+00
1.2043183623e+00
1.2043194286e+00
1.2043204904e+00
1.2043215459e+00
1.2043225932e+00
1.2043236301e+00
1.2043246546e+00
1.2043256644e+00
1.2043266578e+00
1.2043276331e+00
1.2043285897e+00
1.2043295272e+00
1.2043304469e+00
1.2043313507e+00
1.2043322425e+00
1.2043331277e+00
1.2043340138e+00
1.2043349099e+00
1.2043358282e+00
1.2043367827e+00
1.2043377906e+00
1.2043388717e+00
1.2043400491e+00
1.2043413490e+00
1.2043428012e+00
1.2043444388e+00
1.2043462983e+00
1.2043484187e+00
1.2043508404e+00
1.2043536022e+00
1.2043727713e+00
1.2011735652e+00
1.2011756509e+00
1.2012012392e+00
1.2012401420e+00
1.2012918407e+00
1.2013556616e+00
1.2014307956e+00
1.2015163086e+00
1.2016111664e+00
1.2017142479e+00
1.2018243731e+00
1.2019403171e+00
1.2020608392e+00
1.2021846960e+00
1.2023106693e+00
1.2024375765e+00
1.2025642958e+00
1.2026897724e+00
1.2028130397e+00
1.2029332206e+00
1.2030495434e+00
1.2031613393e+00
1.2032680519e+00
1.2033692310e+00
1.2034645369e+00
1.2035537311e+00
1.2036366760e+00
1.2037133231e+00
1.2037837098e+00
1.2038479461e+00
1.2039062091e+00
1.2039587298e+00
1.2040057863e+00
1.2040476911e+00
1.2040847844e+00
1.2041174230e+00
1.2041459738e+00
1.2041708053e+00
1.2041922816e+00
1.2042107563e+00
1.2042265685e+00
1.2042400384e+00
1.2042514650e+00
1.2042611239e+00
1.2042692663e+00
1.2042761188e+00
1.2042818830e+00
1.2042867371e+00
1.2042908361e+00
1.2042943144e+00
1.2042972864e+00
1.2042998491e+00
1.2043020834e+00
1.2043040568e+00
1.2043058239e+00
1.2043074298e+00
1.2043089099e+00
1.2043102929e+00
1.2043116008e+00
1.2043128511e+00
1.2043140566e+00
1.2043152274e+00
1.2043163705e+00
1.2043174912e+00
1.2043185926e+00
1.2043196770e+00
1.2043207454e+00
1.2043217977e+00
1.2043228336e+00
1.2043238517e+00
1.2043248505e+00
1.2043258278e+00
1.2043267814e+00
1.2043277084e+00
1.2043286064e+00
1.2043294725e+00
1.2043303043e+00
1.2043310994e+00
1.2043318563e+00
1.2043325738e+00
1.2043332520e+00
1.2043338916e+00
1.2043344955e+00
1.2043350674e+00
1.2043356135e+00
1.2043361414e+00
1.2043366615e+00
1.2043371863e+00
1.2043377310e+00
1.2043383133e+00
1.2043389537e+00
1.2043396757e+00
1.2043405055e+00
1.2043414719e+00
1.2043426065e+00
1.2043439426e+00
1.2043455145e+00
1.2043473564e+00
1.2043494991e+00
1.2043659573e+00
1.2013195324e+00
1.2013212752e+00
1.2013456758e+00
1.2013827826e+00
1.2014321009e+00
1.2014929921e+00
1.2015646831e+00
1.2016462870e+00
1.2017368146e+00
1.2018352010e+00
1.2019403171e+00
1.2020509986e+00
1.2021660583e+00
1.2022843138e+00
1.2024045987e+00
1.2025257884e+00
1.2026468077e+00
1.2027666533e+00
1.2028843975e+00
1.2029992058e+00
1.2031103362e+00
1.2032171519e+00
1.2033191164e+00
1.2034158008e+00
1.2035068759e+00
1.2035921142e+00
1.2036713800e+00
1.2037446274e+00
1.2038118886e+00
1.2038732693e+00
1.2039289364e+00
1.2039791115e+00
1.2040240592e+00
1.2040640797e+00
1.2040994979e+00
1.2041306569e+00
1.2041579081e+00
1.2041816056e+00
1.2042020990e+00
1.2042197282e+00
1.2042348187e+00
1.2042476782e+00
1.2042585938e+00
1.2042678299e+00
1.2042756275e+00
1.2042822033e+00
1.2042877505e+00
1.2042924387e+00
1.2042964161e+00
1.2042998097e+00
1.2043027284e+00
1.2043052631e+00
1.2043074904e+00
1.2043094726e+00
1.2043112611e+00
1.2043128967e+00
1.2043144122e+00
1.2043158330e+00
1.2043171790e+00
1.2043184652e+00
1.2043197028e+00
1.2043208997e+00
1.2043220616e+00
1.2043231922e+00
1.2043242936e+00
1.2043253668e+00
1.2043264117e+00
1.2043274275e+00
1.2043284126e+00
1.2043293654e+00
1.2043302830e+00
1.2043311631e+00