# vtk DataFile Version 2.0
Blank
ASCII
DATASET STRUCTURED_GRID
DIMENSIONS 101 101 2
POINTS 20402 float
0.0000000000e+00 0.0000000000e+00 0.0000000000e+00
1.0000000000e-02 0.0000000000e+00 0.0000000000e+00
2.0000000000e-02 0.0000000000e+00 0.0000000000e+00
3.0000000000e-02 0.0000000000e+00 0.0000000000e+00
4.0000000000e-02 0.0000000000e+00 0.0000000000e+00
5.0000000000e-02 0.0000000000e+00 0.0000000000e+00
6.0000000000e-02 0.0000000000e+00 0.0000000000e+00
7.0000000000e-02 0.0000000000e+00 0.0000000000e+00
8.0000000000e-02 0.0000000000e+00 0.0000000000e+00
9.0000000000e-02 0.0000000000e+00 0.0000000000e+00
1.0000000000e-01 0.0000000000e+00 0.0000000000e+00
1.1000000000e-01 0.0000000000e+00 0.0000000000e+00
1.2000000000e-01 0.0000000000e+00 0.0000000000e+00
1.3000000000e-01 0.0000000000e+00 0.0000000000e+00
1.4000000000e-01 0.0000000000e+00 0.0000000000e+00
1.5000000000e-01 0.0000000000e+00 0.0000000000e+00
1.6000000000e-01 0.0000000000e+00 0.0000000000e+00
1.7000000000e-01 0.0000000000e+00 0.0000000000e+00
1.8000000000e-01 0.0000000000e+00 0.0000000000e+00
1.9000000000e-01 0.0000000000e+00 0.0000000000e+00
2.0000000000e-01 0.0000000000e+00 0.0000000000e+00
2.1000000000e-01 0.0000000000e+00 0.0000000000e+00
2.2000000000e-01 0.0000000000e+00 0.0000000000e+00
2.3000000000e-01 0.0000000000e+00 0.0000000000e+00
2.4000000000e-01 0.0000000000e+00 0.0000000000e+00
2.5000000000e-01 0.0000000000e+00 0.0000000000e+00
2.6000000000e-01 0.0000000000e+00 0.0000000000e+00
2.7000000000e-01 0.0000000000e+00 0.0000000000e+00
2.8000000000e-01 0.0000000000e+00 0.0000000000e+00
2.9000000000e-01 0.0000000000e+00 0.0000000000e+00
3.0000000000e-01 0.0000000000e+00 0.0000000000e+00
3.1000000000e-01 0.0000000000e+00 0.0000000000e+00
3.2000000000e-01 0.0000000000e+00 0.0000000000e+00
3.3000000000e-01 0.0000000000e+00 0.0000000000e+00
3.4000000000e-01 0.0000000000e+00 0.0000000000e+00
3.5000000000e-01 0.0000000000e+00 0.0000000000e+00
3.6000000000e-01 0.0000000000e+00 0.0000000000e+00
3.7000000000e-01 0.0000000000e+00 0.0000000000e+00
3.8000000000e-01 0.0000000000e+00 0.0000000000e+00
3.9000000000e-01 0.0000000000e+00 0.0000000000e+00
4.0000000000e-01 0.0000000000e+00 0.0000000000e+00
4.1000000000e-01 0.0000000000e+00 0.0000000000e+00
4.2000000000e-01 0.0000000000e+00 0.0000000000e+00
4.3000000000e-01 0.0000000000e+00 0.0000000000e+00
4.4000000000e-01 0.0000000000e+00 0.0000000000e+00
4.5000000000e-01 0.0000000000e+00 0.0000000000e+00
4.6000000000e-01 0.0000000000e+00 0.0000000000e+00
4.7000000000e-01 0.0000000000e+00 0.0000000000e+00
4.8000000000e-01 0.0000000000e+00 0.0000000000e+00
4.9000000000e-01 0.0000000000e+00 0.0000000000e+00
5.0000000000e-01 0.0000000000e+00 0.0000000000e+00
5.1000000000e-01 0.0000000000e+00 0.0000000000e+00
5.2000000000e-01 0.0000000000e+00 0.0000000000e+00
5.3000000000e-01 0.0000000000e+00 0.0000000000e+00
5.4000000000e-01 0.0000000000e+00 0.0000000000e+00
5.5000000000e-01 0.0000000000e+00 0.0000000000e+00
5.6000000000e-01 0.0000000000e+00 0.0000000000e+00
5.7000000000e-01 0.0000000000e+00 0.0000000000e+00
5.8000000000e-01 0.0000000000e+00 0.0000000000e+00
5.9000000000e-01 0.0000000000e+00 0.0000000000e+00
6.0000000000e-01 0.0000000000e+00 0.0000000000e+00
6.1000000000e-01 0.0000000000e+00 0.0000000000e+00
6.2000000000e-01 0.0000000000e+00 0.0000000000e+00
6.3000000000e-01 0.0000000000e+00 0.0000000000e+00
6.4000000000e-01 0.0000000000e+00 0.0000000000e+00
6.5000000000e-01 0.0000000000e+00 0.0000000000e+00
6.6000000000e-01 0.0000000000e+00 0.0000000000e+00
6.7000000000e-01 0.0000000000e+00 0.0000000000e+00
6.8000000000e-01 0.0000000000e+00 0.0000000000e+00
6.9000000000e-01 0.0000000000e+00 0.0000000000e+00
7.0000000000e-01 0.0000000000e+00 0.0000000000e+00
7.1000000000e-01 0.0000000000e+00 0.0000000000e+00
7.2000000000e-01 0.0000000000e+00 0.0000000000e+00
7.3000000000e-01 0.0000000000e+00 0.0000000000e+00
7.4000000000e-01 0.0000000000e+00 0.0000000000e+00
7.5000000000e-01 0.0000000000e+00 0.0000000000e+00
7.6000000000e-01 0.0000000000e+00 0.0000000000e+00
7.7000000000e-01 0.0000000000e+00 0.0000000000e+00
7.8000000000e-01 0.0000000000e+00 0.0000000000e+00
7.9000000000e-01 0.0000000000e+00 0.0000000000e+00
8.0000000000e-01 0.0000000000e+00 0.0000000000e+00
8.1000000000e-01 0.0000000000e+00 0.0000000000e+00
8.2000000000e-01 0.0000000000e+00 0.0000000000e+00
8.3000000000e-01 0.0000000000e+00 0.0000000000e+00
8.4000000000e-01 0.0000000000e+00 0.0000000000e+00
8.5000000000e-01 0.0000000000e+00 0.0000000000e+00
8.6000000000e-01 0.0000000000e+00 0.0000000000e+00
8.7000000000e-01 0.0000000000e+00 0.0000000000e+00
8.8000000000e-01 0.0000000000e+00 0.0000000000e+00
8.9000000000e-01 0.0000000000e+00 0.0000000000e+00
9.0000000000e-01 0.0000000000e+00 0.0000000000e+00
9.1000000000e-01 0.0000000000e+00 0.0000000000e+00
9.2000000000e-01 0.0000000000e+00 0.0000000000e+00
9.3000000000e-01 0.0000000000e+00 0.0000000000e+00
9.4000000000e-01 0.0000000000e+00 0.0000000000e+00
9.5000000000e-01 0.0000000000e+00 0.0000000000e+00
9.6000000000e-01 0.0000000000e+00 0.0000000000e+00
9.7000000000e-01 0.0000000000e+00 0.0000000000e+00
9.8000000000e-01 0.0000000000e+00 0.0000000000e+00
9.9000000000e-01 0.0000000000e+00 0.0000000000e+00
1.0000000000e+00 0.0000000000e+00 0.0000000000e+00
0.0000000000e+00 1.0000000000e-02 0.0000000000e+00
1.0000000000e-02 1.0000000000e-02 0.0000000000e+00
2.0000000000e-02 1.0000000000e-02 0.0000000000e+00
3.0000000000e-02 1.0000000000e-02 0.0000000000e+00
4.0000000000e-02 1.0000000000e-02 0.0000000000e+00
5.0000000000e-02 1.0000000000e-02 0.0000000000e+00
6.0000000000e-02 1.0000000000e-02 0.0000000000e+00
7.0000000000e-02 1.0000000000e-02 0.0000000000e+00
8.0000000000e-02 1.0000000000e-02 0.0000000000e+00
9.0000000000e-02 1.0000000000e-02 0.0000000000e+00
1.0000000000e-01 1.0000000000e-02 0.0000000000e+00
1.1000000000e-01 1.0000000000e-02 0.0000000000e+00
1.2000000000e-01 1.0000000000e-02 0.0000000000e+00
1.3000000000e-01 1.0000000000e-02 0.0000000000e+00
1.4000000000e-01 1.0000000000e-02 0.0000000000e+00
1.5000000000e-01 1.0000000000e-02 0.0000000000e+00
1.6000000000e-01 1.0000000000e-02 0.0000000000e+00
1.7000000000e-01 1.0000000000e-02 0.0000000000e+00
1.8000000000e-01 1.0000000000e-02 0.0000000000e+00
1.9000000000e-01 1.0000000000e-02 0.0000000000e+00
2.0000000000e-01 1.0000000000e-02 0.0000000000e+00
2.1000000000e-01 1.0000000000e-02 0.0000000000e+00
2.2000000000e-01 1.0000000000e-02 0.0000000000e+00
2.3000000000e-01 1.0000000000e-02 0.0000000000e+00
2.4000000000e-01 1.0000000000e-02 0.0000000000e+00
2.5000000000e-01 1.0000000000e-02 0.0000000000e+00
2.6000000000e-01 1.0000000000e-02 0.0000000000e+00
2.7000000000e-01 1.0000000000e-02 0.0000000000e+00
2.8000000000e-01 1.0000000000e-02 0.0000000000e+00
2.9000000000e-01 1.0000000000e-02 0.0000000000e+00
3.0000000000e-01 1.0000000000e-02 0.0000000000e+00
3.1000000000e-01 1.0000000000e-02 0.0000000000e+00
3.2000000000e-01 1.0000000000e-02 0.0000000000e+00
3.3000000000e-01 1.0000000000e-02 0.0000000000e+00
3.4000000000e-01 1.0000000000e-02 0.0000000000e+00
3.5000000000e-01 1.0000000000e-02 0.0000000000e+00
3.6000000000e-01 1.0000000000e-02 0.0000000000e+00
3.7000000000e-01 1.0000000000e-02 0.0000000000e+00
3.8000000000e-01 1.0000000000e-02 0.0000000000e+00
3.9000000000e-01 1.0000000000e-02 0.0000000000e+00
4.0000000000e-01 1.0000000000e-02 0.0000000000e+00
4.1000000000e-01 1.0000000000e-02 0.0000000000e+00
4.2000000000e-01 1.0000000000e-02 0.0000000000e+00
4.3000000000e-01 1.0000000000e-02 0.0000000000e+00
4.4000000000e-01 1.0000000000e-02 0.0000000000e+00
4.5000000000e-01 1.0000000000e-02 0.0000000000e+00
4.6000000000e-01 1.0000000000e-02 0.0000000000e+00
4.7000000000e-01 1.0000000000e-02 0.0000000000e+00
4.8000000000e-01 1.0000000000e-02 0.0000000000e+00
4.9000000000e-01 1.0000000000e-02 0.0000000000e+00
5.0000000000e-01 1.0000000000e-02 0.0000000000e+00
5.1000000000e-01 1.0000000000e-02 0.0000000000e+00
5.2000000000e-01 1.0000000000e-02 0.0000000000e+00
5.3000000000e-01 1.0000000000e-02 0.0000000000e+00
5.4000000000e-01 1.0000000000e-02 0.0000000000e+00
5.5000000000e-01 1.0000000000e-02 0.0000000000e+00
5.6000000000e-01 1.0000000000e-02 0.0000000000e+00
5.7000000000e-01 1.0000000000e-02 0.0000000000e+00
5.8000000000e-01 1.0000000000e-02 0.0000000000e+00
5.9000000000e-01 1.0000000000e-02 0.0000000000e+00
6.0000000000e-01 1.0000000000e-02 0.0000000000e+00
6.1000000000e-01 1.0000000000e-02 0.0000000000e+00
6.2000000000e-01 1.0000000000e-02 0.0000000000e+00
6.3000000000e-01 1.0000000000e-02 0.0000000000e+00
6.4000000000e-01 1.0000000000e-02 0.0000000000e+00
6.5000000000e-01 1.0000000000e-02 0.0000000000e+00
6.6000000000e-01 1.0000000000e-02 0.0000000000e+00
6.7000000000e-01 1.0000000000e-02 0.0000000000e+00
6.8000000000e-01 1.0000000000e-02 0.0000000000e+00
6.9000000000e-01 1.0000000000e-02 0.0000000000e+00
7.0000000000e-01 1.0000000000e-02 0.0000000000e+00
7.1000000000e-01 1.0000000000e-02 0.0000000000e+00
7.2000000000e-01 1.0000000000e-02 0.0000000000e+00
7.3000000000e-01 1.0000000000e-02 0.0000000000e+00
7.4000000000e-01 1.0000000000e-02 0.0000000000e+00
7.5000000000e-01 1.0000000000e-02 0.0000000000e+00
7.6000000000e-01 1.0000000000e-02 0.0000000000e+00
7.7000000000e-01 1.0000000000e-02 0.0000000000e+00
7.8000000000e-01 1.0000000000e-02 0.0000000000e+00
7.9000000000e-01 1.0000000000e-02 0.0000000000e+00
8.0000000000e-01 1.0000000000e-02 0.0000000000e+00
8.1000000000e-01 1.0000000000e-02 0.0000000000e+00
8.2000000000e-01 1.0000000000e-02 0.0000000000e+00
8.3000000000e-01 1.0000000000e-02 0.0000000000e+00
8.4000000000e-01 1.0000000000e-02 0.0000000000e+00
8.5000000000e-01 1.0000000000e-02 0.0000000000e+00
8.6000000000e-01 1.0000000000e-02 0.0000000000e+00
8.7000000000e-01 1.0000000000e-02 0.0000000000e+00
8.8000000000e-01 1.0000000000e-02 0.0000000000e+00
8.9000000000e-01 1.0000000000e-02 0.0000000000e+00
9.0000000000e-01 1.0000000000e-02 0.0000000000e+00
9.1000000000e-01 1.0000000000e-02 0.0000000000e+00
9.2000000000e-01 1.0000000000e-02 0.0000000000e+00
[...]
CELL_DATA 10000

SCALARS massDensity float
LOOKUP_TABLE default
1.1953173079e+00
1.1954255545e+00
1.1955833019e+00
1.1958187437e+00
1.1961249593e+00
1.1964933780e+00
1.1969141852e+00
1.1973766854e+00
1.1978697442e+00
1.1983821683e+00
1.1989031299e+00
1.1994224862e+00
1.1999311051e+00
1.2004210593e+00
1.2008858072e+00
1.2013202376e+00
1.2017207008e+00
1.2020849215e+00
1.2024119102e+00
1.2027017883e+00
1.2029556309e+00
1.2031752561e+00
1.2033630526e+00
1.2035217793e+00
1.2036544171e+00
1.2037640104e+00
1.2038535638e+00
1.2039259374e+00
1.2039837932e+00
1.2040295403e+00
1.2040653234e+00
1.2040930056e+00
1.2041141856e+00
1.2041302041e+00
1.2041421749e+00
1.2041510028e+00
1.2041574183e+00
1.2041619974e+00
1.2041651931e+00
1.2041673528e+00
1.2041687437e+00
1.2041695652e+00
1.2041699679e+00
1.2041700616e+00
1.2041699283e+00
1.2041696270e+00
1.2041692020e+00
1.2041686853e+00
1.2041681021e+00
1.2041674716e+00
1.2041668104e+00
1.2041661326e+00
1.2041654524e+00
1.2041647836e+00
1.2041641409e+00
1.2041635407e+00
1.2041630008e+00
1.2041625416e+00
1.2041621859e+00
1.2041619601e+00
1.2041618935e+00
1.2041620203e+00
1.2041623782e+00
1.2041630112e+00
1.2041639676e+00
1.2041653042e+00
1.2041670828e+00
1.2041693760e+00
1.2041722637e+00
1.2041758394e+00
1.2041802069e+00
1.2041854880e+00
1.2041918193e+00
1.2041993609e+00
1.2042082935e+00
1.2042188272e+00
1.2042311983e+00
1.2042456763e+00
1.2042625573e+00
1.2042821669e+00
1.2043048463e+00
1.2043309466e+00
1.2043608035e+00
1.2043947191e+00
1.2044329233e+00
1.2044755432e+00
1.2045225528e+00
1.2045737359e+00
1.2046286329e+00
1.2046865068e+00
1.2047462989e+00
1.2048066072e+00
1.2048656550e+00
1.2049212805e+00
1.2049709092e+00
1.2050115453e+00
1.2050397627e+00
1.2050517962e+00
1.2050438782e+00
1.2051956881e+00
1.1954255545e+00
1.1955392446e+00
1.1956986593e+00
1.1959339093e+00
1.1962385346e+00
1.1966043339e+00
1.1970217352e+00
1.1974802687e+00
1.1979689457e+00
1.1984767368e+00
1.1989929155e+00
1.1995074671e+00
1.2000113305e+00
1.2004966764e+00
1.2009570073e+00
1.2013872802e+00
1.2017838650e+00
1.2021445269e+00
1.2024682747e+00
1.2027552471e+00
1.2030065016e+00
1.2032238567e+00
1.2034096729e+00
1.2035666987e+00
1.2036978827e+00
1.2038062535e+00
1.2038947832e+00
1.2039663154e+00
1.2040234826e+00
1.2040686792e+00
1.2041040247e+00
1.2041313710e+00
1.2041522966e+00
1.2041681341e+00
1.2041799819e+00
1.2041887399e+00
1.2041951269e+00
1.2041997161e+00
1.2042029522e+00
1.2042051814e+00
1.2042066644e+00
1.2042076004e+00
1.2042081352e+00
1.2042083785e+00
1.2042084087e+00
1.2042082844e+00
1.2042080468e+00
1.2042077273e+00
1.2042073481e+00
1.2042069268e+00
1.2042064772e+00
1.2042060110e+00
1.2042055389e+00
1.2042050711e+00
1.2042046183e+00
1.2042041917e+00
1.2042038038e+00
1.2042034681e+00
1.2042032007e+00
1.2042030188e+00
1.2042029427e+00
1.2042029947e+00
1.2042032012e+00
1.2042035905e+00
1.2042041968e+00
1.2042050568e+00
1.2042062143e+00
1.2042077170e+00
1.2042096220e+00
1.2042119922e+00
1.2042149030e+00
1.2042184388e+00
1.2042227007e+00
1.2042278033e+00
1.2042338834e+00
1.2042410959e+00
1.2042496228e+00
1.2042596671e+00
1.2042714595e+00
1.2042852485e+00
1.2043013012e+00
1.2043198867e+00
1.2043412688e+00
1.2043656788e+00
1.2043933005e+00
1.2044242333e+00
1.2044584703e+00
1.2044958576e+00
1.2045360725e+00
1.2045785875e+00
1.2046226569e+00
1.2046672947e+00
1.2047112794e+00
1.2047531531e+00
1.2047912551e+00
1.2048237650e+00
1.2048488166e+00
1.2048647017e+00
1.2048703113e+00
1.2050563166e+00
1.1955833019e+00
1.1956986593e+00
1.1958563794e+00
1.1960880801e+00
1.1963875824e+00
1.1967469165e+00
1.1971567864e+00
1.1976069323e+00
1.1980866276e+00
1.1985850328e+00
1.1990916609e+00
1.1995966577e+00
1.2000911633e+00
1.2005674670e+00
1.2010192205e+00
1.2014414505e+00
1.2018306197e+00
1.2021845144e+00
1.2025021845e+00
1.2027837494e+00
1.2030302660e+00
1.2032435056e+00
1.2034258009e+00
1.2035798381e+00
1.2037085238e+00
1.2038148208e+00
1.2039016565e+00
1.2039718130e+00
1.2040278822e+00
1.2040722065e+00
1.2041068725e+00
1.2041336910e+00
1.2041542164e+00
1.2041697507e+00
1.2041813764e+00
1.2041899713e+00
1.2041962446e+00
1.2042007547e+00
1.2042039410e+00
1.2042061395e+00
1.2042076090e+00
1.2042085418e+00
1.2042090835e+00
1.2042093391e+00
1.2042093876e+00
1.2042092845e+00
1.2042090718e+00
1.2042087787e+00
1.2042084281e+00
1.2042080364e+00
1.2042076176e+00
1.2042071826e+00
1.2042067420e+00
1.2042063056e+00
1.2042058836e+00
1.2042054867e+00
1.2042051267e+00
1.2042048168e+00
1.2042045717e+00
1.2042044082e+00
1.2042043448e+00
1.2042044035e+00
1.2042046078e+00
1.2042049860e+00
1.2042055685e+00
1.2042063916e+00
1.2042074948e+00
1.2042089253e+00
1.2042107351e+00
1.2042129868e+00
1.2042157501e+00
1.2042191094e+00
1.2042231605e+00
1.2042280188e+00
1.2042338164e+00
1.2042407104e+00
1.2042488793e+00
1.2042585297e+00
1.2042698900e+00
1.2042832131e+00
1.2042987639e+00
1.2043168160e+00
1.2043376297e+00
1.2043614403e+00
1.2043884273e+00
1.2044186950e+00
1.2044522359e+00
1.2044889089e+00
1.2045284046e+00
1.2045702295e+00
1.2046136834e+00
1.2046578605e+00
1.2047016493e+00
1.2047437644e+00
1.2047827862e+00
1.2048172536e+00
1.2048457972e+00
1.2048673897e+00
1.2048817241e+00
1.2050887006e+00
1.1958187437e+00
1.1959339093e+00
1.1960880801e+00
1.1963139970e+00
1.1966056480e+00
1.1969553533e+00
1.1973540767e+00
1.1977919060e+00
1.1982583938e+00
1.1987430523e+00
1.1992356553e+00
1.1997266655e+00
1.2002074357e+00
1.2006705072e+00
1.2011096773e+00
1.2015201444e+00
1.2018984428e+00
1.2022424497e+00
1.2025512195e+00
1.2028248929e+00
1.2030644801e+00
1.2032717233e+00
1.2034488762e+00
1.2035985668e+00
1.2037236090e+00
1.2038268962e+00
1.2039112642e+00
1.2039794281e+00
1.2040338987e+00
1.2040769613e+00
1.2041106370e+00
1.2041366924e+00
1.2041566320e+00
1.2041717266e+00
1.2041830229e+00
1.2041913786e+00
1.2041974782e+00
1.2042018680e+00
1.2042049712e+00
1.2042071175e+00
1.2042085550e+00
1.2042094733e+00
1.2042100110e+00
1.2042102726e+00
1.2042103325e+00
1.2042102464e+00
1.2042100535e+00
1.2042097836e+00
1.2042094575e+00
1.2042090923e+00
1.2042087005e+00
1.2042082934e+00
1.2042078807e+00
1.2042074721e+00
1.2042070772e+00
1.2042067062e+00
1.2042063704e+00
1.2042060822e+00
1.2042058558e+00
1.2042057066e+00
1.2042056527e+00
1.2042057139e+00
1.2042059136e+00
1.2042062768e+00
1.2042068338e+00
1.2042076171e+00
1.2042086658e+00
1.2042100226e+00
1.2042117390e+00
1.2042138725e+00
1.2042164926e+00
1.2042196784e+00
1.2042235262e+00
1.2042281463e+00
1.2042336723e+00
1.2042402574e+00
1.2042480829e+00
1.2042573530e+00
1.2042683003e+00
1.2042811762e+00
1.2042962509e+00
1.2043137963e+00
1.2043340784e+00
1.2043573310e+00
1.2043837398e+00
1.2044134103e+00
1.2044463460e+00
1.2044824164e+00
1.2045213379e+00
1.2045626502e+00
1.2046057101e+00
1.2046496870e+00
1.2046935815e+00
1.2047362522e+00
1.2047764764e+00
1.2048130313e+00
1.2048448328e+00
1.2048711208e+00
1.2048917171e+00
1.2051135872e+00
1.1961249593e+00
1.1962385346e+00
1.1963875824e+00
1.1966056480e+00
1.1968869524e+00
1.1972240689e+00
1.1976083453e+00
1.1980302062e+00
1.1984796432e+00
1.1989465188e+00
1.1994210344e+00
1.1998939646e+00
1.2003570273e+00
1.2008030014e+00
1.2012259543e+00
1.2016212286e+00
1.2019855230e+00
1.2023167654e+00
1.2026140760e+00
1.2028775684e+00
1.2031082407e+00
1.2033077531e+00
1.2034782965e+00
1.2036223873e+00
1.2037427515e+00
1.2038421636e+00
1.2039233671e+00
1.2039889666e+00
1.2040413897e+00
1.2040828286e+00
1.2041152370e+00
1.2041403088e+00
1.2041594989e+00
1.2041740246e+00
1.2041848987e+00
1.2041929416e+00
1.2041988167e+00
1.2042030454e+00
1.2042060386e+00
1.2042081100e+00
1.2042095015e+00
1.2042103924e+00
1.2042109186e+00
1.2042111783e+00
1.2042112451e+00
1.2042111707e+00
1.2042109944e+00
1.2042107433e+00
1.2042104390e+00
1.2042100964e+00
1.2042097287e+00
1.2042093459e+00
1.2042089579e+00
1.2042085736e+00
1.2042082023e+00
1.2042078537e+00
1.2042075384e+00
1.2042072685e+00
1.2042070569e+00
1.2042069187e+00
1.2042068703e+00
1.2042069312e+00
1.2042071223e+00
1.2042074684e+00
1.2042079966e+00
1.2042087390e+00
1.2042097308e+00
1.2042110141e+00
1.2042126361e+00
1.2042146537e+00
1.2042171316e+00
1.2042201486e+00
1.2042237961e+00
1.2042281852e+00
1.2042334451e+00
1.2042397310e+00
1.2042472213e+00
1.2042561236e+00
1.2042666689e+00
1.2042791137e+00
1.2042937280e+00
1.2043107898e+00
1.2043305655e+00
1.2043532965e+00
1.2043791711e+00
1.2044083052e+00
1.2044407116e+00
1.2044762796e+00
1.2045147497e+00
1.2045557017e+00
1.2045985437e+00
1.2046425193e+00
1.2046867207e+00
1.2047301250e+00
1.2047716434e+00
1.2048102023e+00
1.2048448438e+00
1.2048748680e+00
1.2048999622e+00
1.2051327173e+00
1.1964933780e+00
1.1966043339e+00
1.1967469165e+00
1.1969553533e+00
1.1972240689e+00
1.1975460062e+00
1.1979128672e+00
1.1983155650e+00
1.1987445065e+00
1.1991900730e+00
1.1996428692e+00
1.2000941456e+00
1.2005359558e+00
1.2009614588e+00
1.2013649548e+00
1.2017420436e+00
1.2020895422e+00
1.2024055110e+00
1.2026890836e+00
1.2029403991e+00
1.2031603881e+00
1.2033506594e+00
1.2035132858e+00
1.2036506873e+00
1.2037654506e+00
1.2038602373e+00
1.2039376534e+00
1.2040001946e+00
1.2040501674e+00
1.2040896716e+00
1.2041205628e+00
1.2041444637e+00
1.2041627550e+00
1.2041766034e+00
1.2041869692e+00
1.2041946393e+00
1.2042002415e+00
1.2042042769e+00
1.2042071333e+00
1.2042091130e+00
1.2042104432e+00
1.2042112978e+00
1.2042118036e+00
1.2042120565e+00
1.2042121242e+00
1.2042120583e+00
1.2042118941e+00
1.2042116593e+00
1.2042113728e+00
1.2042110503e+00
1.2042107031e+00
1.2042103419e+00
1.2042099752e+00
1.2042096120e+00
1.2042092609e+00
1.2042089313e+00
1.2042086333e+00
1.2042083779e+00
1.2042081778e+00
1.2042080468e+00
1.2042080010e+00
1.2042080578e+00
1.2042082379e+00
1.2042085634e+00
1.2042090611e+00
1.2042097597e+00
1.2042106938e+00
1.2042119020e+00
1.2042134304e+00
1.2042153316e+00
1.2042176697e+00
1.2042205190e+00
1.2042239707e+00
1.2042281316e+00
1.2042331316e+00
1.2042391227e+00
1.2042462853e+00
1.2042548253e+00
1.2042649779e+00
1.2042769993e+00
1.2042911653e+00
1.2043077559e+00
1.2043270452e+00
1.2043492784e+00
1.2043746547e+00
1.2044032986e+00
1.2044352396e+00
1.2044703856e+00
1.2045085069e+00
1.2045492194e+00
1.2045919821e+00
1.2046360997e+00
1.2046807408e+00
1.2047249663e+00
1.2047677771e+00
1.2048081739e+00
1.2048452390e+00
1.2048782243e+00
1.2049066220e+00
1.2051476319e+00
1.1969141852e+00
1.1970217352e+00
1.1971567864e+00
1.1973540767e+00
1.1976083453e+00
1.1979128672e+00
1.1982598387e+00
1.1986406194e+00
1.1990461944e+00
1.1994674197e+00
1.1998954709e+00
1.2003220274e+00
1.2007396326e+00
1.2011417747e+00
1.2015231163e+00
1.2018794591e+00
1.2022078384e+00
1.2025063886e+00
1.2027743274e+00
1.2030117605e+00
1.2032195968e+00
1.2033993362e+00
1.2035529607e+00
1.2036827411e+00
1.2037911396e+00
1.2038806583e+00
1.2039537731e+00
1.2040128318e+00
1.2040600240e+00
1.2040973249e+00
1.2041264958e+00
1.2041490622e+00
1.2041663351e+00
1.2041794104e+00
1.2041892003e+00
1.2041964429e+00
1.2042017355e+00
1.2042055470e+00
1.2042082472e+00
1.2042101180e+00
1.2042113771e+00
1.2042121854e+00
1.2042126653e+00
1.2042129049e+00
1.2042129704e+00
1.2042129081e+00
1.2042127537e+00
1.2042125313e+00
1.2042122604e+00
1.2042119544e+00
1.2042116254e+00
1.2042112824e+00
1.2042109343e+00
1.2042105889e+00
1.2042102550e+00
1.2042099412e+00
1.2042096570e+00
1.2042094130e+00
1.2042092210e+00
1.2042090942e+00
1.2042090472e+00
1.2042090973e+00
1.2042092627e+00
1.2042095656e+00
1.2042100295e+00
1.2042106829e+00
1.2042115571e+00
1.2042126897e+00
1.2042141230e+00
1.2042159089e+00
1.2042181071e+00
1.2042207912e+00
1.2042240480e+00
1.2042279843e+00
1.2042327262e+00
1.2042384267e+00
1.2042452636e+00
1.2042534458e+00
1.2042632075e+00
1.2042748102e+00
1.2042885313e+00
1.2043046584e+00
1.2043234700e+00
1.2043452222e+00
1.2043701229e+00
1.2043983121e+00
1.2044298355e+00
1.2044646248e+00
1.2045024779e+00
1.2045430481e+00
1.2045858380e+00
1.2046302047e+00
1.2046753736e+00
1.2047204649e+00
1.2047645296e+00
1.2048065989e+00
1.2048457403e+00
1.2048811221e+00
1.2049120367e+00
1.2051596052e+00
1.1973766854e+00
1.1974802687e+00
1.1976069323e+00
1.1977919060e+00
1.1980302062e+00
1.1983155650e+00
1.1986406194e+00
1.1989973264e+00
1.1993771877e+00
1.1997716973e+00
1.2001725367e+00
1.2005719723e+00
1.2009629708e+00
1.2013394897e+00
1.2016964866e+00
1.2020300797e+00
1.2023374556e+00
1.2026169097e+00
1.2028676791e+00
1.2030898972e+00
1.2032843910e+00
1.2034525917e+00
1.2035963358e+00
1.2037177701e+00
1.2038191844e+00
1.2039029368e+00
1.2039713327e+00
1.2040265818e+00
1.2040707237e+00
1.2041056161e+00
1.2041328992e+00
1.2041540081e+00
1.2041701625e+00
1.2041823939e+00
1.2041915499e+00
1.2041983260e+00
1.2042032762e+00
1.2042068431e+00
1.2042093686e+00
1.2042111197e+00
1.2042122967e+00
1.2042130531e+00
1.2042135004e+00
1.2042137234e+00
1.2042137818e+00
1.2042137212e+00
1.2042135726e+00
1.2042133605e+00
1.2042131018e+00
1.2042128103e+00
1.2042124962e+00
1.2042121690e+00
1.2042118362e+00
1.2042115061e+00
1.2042111862e+00
1.2042108851e+00
1.2042106116e+00
1.2042103758e+00
1.2042101887e+00
1.2042100627e+00
1.2042100119e+00
1.2042100517e+00
1.2042102002e+00
1.2042104770e+00
1.2042109054e+00
1.2042115109e+00
1.2042123240e+00
1.2042133789e+00
1.2042147172e+00
1.2042163865e+00
1.2042184457e+00
1.2042209642e+00
1.2042240281e+00
1.2042277397e+00
1.2042322256e+00
1.2042376351e+00
1.2042441478e+00
1.2042519705e+00
1.2042613414e+00
1.2042725227e+00
1.2042857984e+00
1.2043014603e+00
1.2043197972e+00
1.2043410740e+00
1.2043655133e+00
1.2043932703e+00
1.2044244119e+00
1.2044588937e+00
1.2044965436e+00
1.2045370492e+00
1.2045799521e+00
1.2046246519e+00
1.2046704164e+00
1.2047164029e+00
1.2047616867e+00
1.2048052981e+00
1.2048462654e+00
1.2048836579e+00
1.2049165976e+00
1.2051696598e+00
1.1978697442e+00
1.1979689457e+00
1.1980866276e+00
1.1982583938e+00
1.1984796432e+00
1.1987445065e+00
1.1990461944e+00
1.1993771877e+00
1.1997296564e+00
1.2000956513e+00
1.2004675144e+00
1.2008380163e+00
1.2012006908e+00
1.2015498833e+00
1.2018809701e+00
1.2021903084e+00
1.2024753355e+00
1.2027344357e+00
1.2029669406e+00
1.2031729460e+00
1.2033532502e+00
1.2035091587e+00
1.2036423989e+00
1.2037549442e+00
1.2038489366e+00
1.2039265489e+00
1.2039899327e+00
1.2040411258e+00
1.2040820295e+00
1.2041143575e+00
1.2041396382e+00
1.2041591944e+00
1.2041741633e+00
1.2041854947e+00
1.2041939794e+00
1.2042002568e+00
1.2042048445e+00
1.2042081482e+00
1.2042104885e+00
1.2042121091e+00
1.2042131987e+00
1.2042138962e+00
1.2042143080e+00
1.2042145097e+00
1.2042145591e+00
1.2042144961e+00
1.2042143516e+00
1.2042141467e+00
1.2042138983e+00
1.2042136181e+00
1.2042133169e+00
1.2042130023e+00
1.2042126826e+00
1.2042123646e+00
1.2042120561e+00
1.2042117646e+00
1.2042114989e+00
1.2042112683e+00
1.2042110830e+00
1.2042109549e+00
1.2042108970e+00
1.2042109239e+00
1.2042110522e+00
1.2042113008e+00
1.2042116906e+00
1.2042122465e+00
1.2042129960e+00
1.2042139724e+00
1.2042152137e+00
1.2042167664e+00
1.2042186854e+00
1.2042210389e+00
1.2042239086e+00
1.2042273963e+00
1.2042316244e+00
1.2042367426e+00
1.2042429275e+00
1.2042503881e+00
1.2042593620e+00
1.2042701166e+00
1.2042829388e+00
1.2042981294e+00
1.2043159854e+00
1.2043367856e+00
1.2043607672e+00
1.2043881055e+00
1.2044188896e+00
1.2044531021e+00
1.2044906011e+00
1.2045311069e+00
1.2045741968e+00
1.2046193038e+00
1.2046657267e+00
1.2047126428e+00
1.2047591333e+00
1.2048042085e+00
1.2048468428e+00
1.2048860092e+00
1.2049206809e+00
1.2051786186e+00
1.1983821683e+00
1.1984767368e+00
1.1985850328e+00
1.1987430523e+00
1.1989465188e+00
1.1991900730e+00
1.1994674197e+00
1.1997716973e+00
1.2000956513e+00
1.2004320332e+00
1.2007737476e+00
1.2011142100e+00
1.2014474253e+00
1.2017682536e+00
1.2020724000e+00
1.2023565681e+00
1.2026183642e+00
1.2028563473e+00
1.2030698716e+00
1.2032590606e+00
1.2034246227e+00
1.2035677850e+00
1.2036901149e+00
1.2037934462e+00
1.2038797312e+00
1.2039509815e+00
1.2040091611e+00
1.2040561537e+00
1.2040936955e+00
1.2041233692e+00
1.2041465705e+00
1.2041645210e+00
1.2041782581e+00
1.2041886594e+00
1.2041964455e+00
1.2042022079e+00
1.2042064171e+00
1.2042094493e+00
1.2042115948e+00
1.2042130806e+00
1.2042140765e+00
1.2042147130e+00
1.2042150846e+00
1.2042152635e+00
1.2042153002e+00
1.2042152336e+00
1.2042150901e+00
1.2042148908e+00
1.2042146497e+00
1.2042143792e+00
1.2042140878e+00
1.2042137839e+00
1.2042134742e+00
1.2042131660e+00
1.2042128659e+00
1.2042125815e+00
1.2042123206e+00
1.2042120922e+00
1.2042119059e+00
1.2042117726e+00
1.2042117047e+00
1.2042117157e+00
1.2042118213e+00
1.2042120386e+00
1.2042123879e+00
1.2042128914e+00
1.2042135758e+00
1.2042144714e+00
1.2042156147e+00
1.2042170489e+00
1.2042188273e+00
1.2042210139e+00
1.2042236892e+00
1.2042269505e+00
1.2042309194e+00
1.2042357418e+00
1.2042415949e+00
1.2042486858e+00
1.2042572551e+00
1.2042675714e+00
1.2042799289e+00
1.2042946348e+00
1.2043119988e+00
1.2043323130e+00
1.2043558339e+00
1.2043827582e+00
1.2044132010e+00
1.2044471739e+00
1.2044845660e+00
1.2045251309e+00
1.2045684763e+00
1.2046140647e+00
1.2046612136e+00
1.2047091109e+00
1.2047568268e+00
1.2048033410e+00
1.2048475659e+00
1.2048883805e+00
1.2049246323e+00
1.2051871347e+00
1.1989031299e+00
1.1989929155e+00
1.1990916609e+00
1.1992356553e+00
1.1994210344e+00
1.1996428692e+00
1.1998954709e+00
1.2001725367e+00
1.2004675144e+00
1.2007737476e+00
1.2010848343e+00
1.2013947253e+00
1.2016980204e+00
1.2019899914e+00
1.2022667820e+00
1.2025253495e+00
1.2027635618e+00
1.2029800722e+00
1.2031743322e+00
1.2033464262e+00
1.2034970298e+00
1.2036272379e+00
1.2037385005e+00
1.2038324695e+00
1.2039109390e+00
1.2039757260e+00
1.2040286309e+00
1.2040713564e+00
1.2041054925e+00
1.2041324699e+00
1.2041535660e+00
1.2041698847e+00
1.2041823758e+00
1.2041918313e+00
1.2041989114e+00
1.2042041489e+00
1.2042079759e+00
1.2042107302e+00
1.2042126792e+00
1.2042140256e+00
1.2042149269e+00
1.2042154986e+00
1.2042158295e+00
1.2042159824e+00
1.2042160058e+00
1.2042159326e+00
1.2042157890e+00
1.2042155923e+00
1.2042153573e+00
1.2042150935e+00
1.2042148103e+00
1.2042145142e+00
1.2042142126e+00
1.2042139112e+00
1.2042136171e+00
1.2042133369e+00
1.2042130782e+00
1.2042128491e+00
1.2042126589e+00
1.2042125177e+00
1.2042124368e+00
1.2042124292e+00
1.2042125090e+00
1.2042126927e+00
1.2042129985e+00
1.2042134477e+00
1.2042140644e+00
1.2042148776e+00
1.2042159208e+00
1.2042172353e+00
1.2042188708e+00
1.2042208895e+00
1.2042233674e+00
1.2042264003e+00
1.2042301054e+00
1.2042346277e+00
1.2042401411e+00
1.2042468537e+00
1.2042550057e+00
1.2042648702e+00
1.2042767460e+00
1.2042909503e+00
1.2043078047e+00
1.2043276186e+00
1.2043506692e+00
1.2043771784e+00
1.2044072904e+00
1.2044410478e+00
1.2044783740e+00
1.2045190536e+00
1.2045627258e+00
1.2046088738e+00
1.2046568306e+00
1.2047057804e+00
1.2047547761e+00
1.2048027533e+00
1.2048485596e+00
1.2048909815e+00
1.2049287528e+00
1.2051957322e+00
1.1994224862e+00
1.1995074671e+00
1.1995966577e+00
1.1997266655e+00
1.1998939646e+00
1.2000941456e+00
1.2003220274e+00
1.2005719723e+00
1.2008380163e+00
1.2011142100e+00
1.2013947253e+00
1.2016741630e+00
1.2019476025e+00
1.2022108341e+00
1.2024603359e+00
1.2026934129e+00
1.2029081054e+00
1.2031032407e+00
1.2032782936e+00
1.2034333742e+00
1.2035690674e+00
1.2036863867e+00
1.2037866202e+00
1.2038712771e+00
1.2039419596e+00
1.2040003205e+00
1.2040479705e+00
1.2040864556e+00
1.2041171988e+00
1.2041414983e+00
1.2041604969e+00
1.2041751961e+00
1.2041864450e+00
1.2041949626e+00
1.2042013380e+00
1.2042060558e+00
1.2042095002e+00
1.2042119796e+00
1.2042137306e+00
1.2042149393e+00
1.2042157440e+00
1.2042162518e+00
1.2042165395e+00
1.2042166665e+00
1.2042166739e+00
1.2042165937e+00
1.2042164473e+00
1.2042162525e+00
1.2042160206e+00
1.2042157623e+00
1.2042154845e+00
1.2042151946e+00
1.2042148981e+00
1.2042146016e+00
1.2042143107e+00
1.2042140322e+00
1.2042137728e+00
1.2042135405e+00
1.2042133435e+00
1.2042131915e+00
1.2042130949e+00
1.2042130658e+00
1.2042131173e+00
1.2042132645e+00
1.2042135245e+00
1.2042139166e+00
1.2042144636e+00
1.2042151917e+00
1.2042161330e+00
1.2042173254e+00
1.2042188164e+00
1.2042206640e+00