# vtk DataFile Version 2.0
Blank
ASCII
DATASET STRUCTURED_GRID
DIMENSIONS 101 101 2
POINTS 20402 float
0.0000000000e+00 0.0000000000e+00 0.0000000000e+00
1.0000000000e-02 0.0000000000e+00 0.0000000000e+00
2.0000000000e-02 0.0000000000e+00 0.0000000000e+00
3.0000000000e-02 0.0000000000e+00 0.0000000000e+00
4.0000000000e-02 0.0000000000e+00 0.0000000000e+00
5.0000000000e-02 0.0000000000e+00 0.0000000000e+00
6.0000000000e-02 0.0000000000e+00 0.0000000000e+00
7.0000000000e-02 0.0000000000e+00 0.0000000000e+00
8.0000000000e-02 0.0000000000e+00 0.0000000000e+00
9.0000000000e-02 0.0000000000e+00 0.0000000000e+00
1.0000000000e-01 0.0000000000e+00 0.0000000000e+00
1.1000000000e-01 0.0000000000e+00 0.0000000000e+00
1.2000000000e-01 0.0000000000e+00 0.0000000000e+00
1.3000000000e-01 0.0000000000e+00 0.0000000000e+00
1.4000000000e-01 0.0000000000e+00 0.0000000000e+00
1.5000000000e-01 0.0000000000e+00 0.0000000000e+00
1.6000000000e-01 0.0000000000e+00 0.0000000000e+00
1.7000000000e-01 0.0000000000e+00 0.0000000000e+00
1.8000000000e-01 0.0000000000e+00 0.0000000000e+00
1.9000000000e-01 0.0000000000e+00 0.0000000000e+00
2.0000000000e-01 0.0000000000e+00 0.0000000000e+00
2.1000000000e-01 0.0000000000e+00 0.0000000000e+00
2.2000000000e-01 0.0000000000e+00 0.0000000000e+00
2.3000000000e-01 0.0000000000e+00 0.0000000000e+00
2.4000000000e-01 0.0000000000e+00 0.0000000000e+00
2.5000000000e-01 0.0000000000e+00 0.0000000000e+00
2.6000000000e-01 0.0000000000e+00 0.0000000000e+00
2.7000000000e-01 0.0000000000e+00 0.0000000000e+00
2.8000000000e-01 0.0000000000e+00 0.0000000000e+00
2.9000000000e-01 0.0000000000e+00 0.0000000000e+00
3.0000000000e-01 0.0000000000e+00 0.0000000000e+00
3.1000000000e-01 0.0000000000e+00 0.0000000000e+00
3.2000000000e-01 0.0000000000e+00 0.0000000000e+00
3.3000000000e-01 0.0000000000e+00 0.0000000000e+00
3.4000000000e-01 0.0000000000e+00 0.0000000000e+00
3.5000000000e-01 0.0000000000e+00 0.0000000000e+00
3.6000000000e-01 0.0000000000e+00 0.0000000000e+00
3.7000000000e-01 0.0000000000e+00 0.0000000000e+00
3.8000000000e-01 0.0000000000e+00 0.0000000000e+00
3.9000000000e-01 0.0000000000e+00 0.0000000000e+00
4.0000000000e-01 0.0000000000e+00 0.0000000000e+00
4.1000000000e-01 0.0000000000e+00 0.0000000000e+00
4.2000000000e-01 0.0000000000e+00 0.0000000000e+00
4.3000000000e-01 0.0000000000e+00 0.0000000000e+00
4.4000000000e-01 0.0000000000e+00 0.0000000000e+00
4.5000000000e-01 0.0000000000e+00 0.0000000000e+00
4.6000000000e-01 0.0000000000e+00 0.0000000000e+00
4.7000000000e-01 0.0000000000e+00 0.0000000000e+00
4.8000000000e-01 0.0000000000e+00 0.0000000000e+00
4.9000000000e-01 0.0000000000e+00 0.0000000000e+00
5.0000000000e-01 0.0000000000e+00 0.0000000000e+00
5.1000000000e-01 0.0000000000e+00 0.0000000000e+00
5.2000000000e-01 0.0000000000e+00 0.0000000000e+00
5.3000000000e-01 0.0000000000e+00 0.0000000000e+00
5.4000000000e-01 0.0000000000e+00 0.0000000000e+00
5.5000000000e-01 0.0000000000e+00 0.0000000000e+00
5.6000000000e-01 0.0000000000e+00 0.0000000000e+00
5.7000000000e-01 0.0000000000e+00 0.0000000000e+00
5.8000000000e-01 0.0000000000e+00 0.0000000000e+00
5.9000000000e-01 0.0000000000e+00 0.0000000000e+00
6.0000000000e-01 0.0000000000e+00 0.0000000000e+00
6.1000000000e-01 0.0000000000e+00 0.0000000000e+00
6.2000000000e-01 0.0000000000e+00 0.0000000000e+00
6.3000000000e-01 0.0000000000e+00 0.0000000000e+00
6.4000000000e-01 0.0000000000e+00 0.0000000000e+00
6.5000000000e-01 0.0000000000e+00 0.0000000000e+00
6.6000000000e-01 0.0000000000e+00 0.0000000000e+00
6.7000000000e-01 0.0000000000e+00 0.0000000000e+00
6.8000000000e-01 0.0000000000e+00 0.0000000000e+00
6.9000000000e-01 0.0000000000e+00 0.0000000000e+00
7.0000000000e-01 0.0000000000e+00 0.0000000000e+00
7.1000000000e-01 0.0000000000e+00 0.0000000000e+00
7.2000000000e-01 0.0000000000e+00 0.0000000000e+00
7.3000000000e-01 0.0000000000e+00 0.0000000000e+00
7.4000000000e-01 0.0000000000e+00 0.0000000000e+00
7.5000000000e-01 0.0000000000e+00 0.0000000000e+00
7.6000000000e-01 0.0000000000e+00 0.0000000000e+00
7.7000000000e-01 0.0000000000e+00 0.0000000000e+00
7.8000000000e-01 0.0000000000e+00 0.0000000000e+00
7.9000000000e-01 0.0000000000e+00 0.0000000000e+00
8.0000000000e-01 0.0000000000e+00 0.0000000000e+00
8.1000000000e-01 0.0000000000e+00 0.0000000000e+00
8.2000000000e-01 0.0000000000e+00 0.0000000000e+00
8.3000000000e-01 0.0000000000e+00 0.0000000000e+00
8.4000000000e-01 0.0000000000e+00 0.0000000000e+00
8.5000000000e-01 0.0000000000e+00 0.0000000000e+00
8.6000000000e-01 0.0000000000e+00 0.0000000000e+00
8.7000000000e-01 0.0000000000e+00 0.0000000000e+00
8.8000000000e-01 0.0000000000e+00 0.0000000000e+00
8.9000000000e-01 0.0000000000e+00 0.0000000000e+00
9.0000000000e-01 0.0000000000e+00 0.0000000000e+00
9.1000000000e-01 0.0000000000e+00 0.0000000000e+00
9.2000000000e-01 0.0000000000e+00 0.0000000000e+00
9.3000000000e-01 0.0000000000e+00 0.0000000000e+00
9.4000000000e-01 0.0000000000e+00 0.0000000000e+00
9.5000000000e-01 0.0000000000e+00 0.0000000000e+00
9.6000000000e-01 0.0000000000e+00 0.0000000000e+00
9.7000000000e-01 0.0000000000e+00 0.0000000000e+00
9.8000000000e-01 0.0000000000e+00 0.0000000000e+00
9.9000000000e-01 0.0000000000e+00 0.0000000000e+00
1.0000000000e+00 0.0000000000e+00 0.0000000000e+00
0.0000000000e+00 1.0000000000e-02 0.0000000000e+00
1.0000000000e-02 1.0000000000e-02 0.0000000000e+00
2.0000000000e-02 1.0000000000e-02 0.0000000000e+00
3.0000000000e-02 1.0000000000e-02 0.0000000000e+00
4.0000000000e-02 1.0000000000e-02 0.0000000000e+00
5.0000000000e-02 1.0000000000e-02 0.0000000000e+00
6.0000000000e-02 1.0000000000e-02 0.0000000000e+00
7.0000000000e-02 1.0000000000e-02 0.0000000000e+00
8.0000000000e-02 1.0000000000e-02 0.0000000000e+00
9.0000000000e-02 1.0000000000e-02 0.0000000000e+00
1.0000000000e-01 1.0000000000e-02 0.0000000000e+00
1.1000000000e-01 1.0000000000e-02 0.0000000000e+00
1.2000000000e-01 1.0000000000e-02 0.0000000000e+00
1.3000000000e-01 1.0000000000e-02 0.0000000000e+00
1.4000000000e-01 1.0000000000e-02 0.0000000000e+00
1.5000000000e-01 1.0000000000e-02 0.0000000000e+00
1.6000000000e-01 1.0000000000e-02 0.0000000000e+00
1.7000000000e-01 1.0000000000e-02 0.0000000000e+00
1.8000000000e-01 1.0000000000e-02 0.0000000000e+00
1.9000000000e-01 1.0000000000e-02 0.0000000000e+00
2.0000000000e-01 1.0000000000e-02 0.0000000000e+00
2.1000000000e-01 1.0000000000e-02 0.0000000000e+00
2.2000000000e-01 1.0000000000e-02 0.0000000000e+00
2.3000000000e-01 1.0000000000e-02 0.0000000000e+00
2.4000000000e-01 1.0000000000e-02 0.0000000000e+00
2.5000000000e-01 1.0000000000e-02 0.0000000000e+00
2.6000000000e-01 1.0000000000e-02 0.0000000000e+00
2.7000000000e-01 1.0000000000e-02 0.0000000000e+00
2.8000000000e-01 1.0000000000e-02 0.0000000000e+00
2.9000000000e-01 1.0000000000e-02 0.0000000000e+00
3.0000000000e-01 1.0000000000e-02 0.0000000000e+00
3.1000000000e-01 1.0000000000e-02 0.0000000000e+00
3.2000000000e-01 1.0000000000e-02 0.0000000000e+00
3.3000000000e-01 1.0000000000e-02 0.0000000000e+00
3.4000000000e-01 1.0000000000e-02 0.0000000000e+00
3.5000000000e-01 1.0000000000e-02 0.0000000000e+00
3.6000000000e-01 1.0000000000e-02 0.0000000000e+00
3.7000000000e-01 1.0000000000e-02 0.0000000000e+00
3.8000000000e-01 1.0000000000e-02 0.0000000000e+00
3.9000000000e-01 1.0000000000e-02 0.0000000000e+00
4.0000000000e-01 1.0000000000e-02 0.0000000000e+00
4.1000000000e-01 1.0000000000e-02 0.0000000000e+00
4.2000000000e-01 1.0000000000e-02 0.0000000000e+00
4.3000000000e-01 1.0000000000e-02 0.0000000000e+00
4.4000000000e-01 1.0000000000e-02 0.0000000000e+00
4.5000000000e-01 1.0000000000e-02 0.0000000000e+00
4.6000000000e-01 1.0000000000e-02 0.0000000000e+00
4.7000000000e-01 1.0000000000e-02 0.0000000000e+00
4.8000000000e-01 1.0000000000e-02 0.0000000000e+00
4.9000000000e-01 1.0000000000e-02 0.0000000000e+00
5.0000000000e-01 1.0000000000e-02 0.0000000000e+00
5.1000000000e-01 1.0000000000e-02 0.0000000000e+00
5.2000000000e-01 1.0000000000e-02 0.0000000000e+00
5.3000000000e-01 1.0000000000e-02 0.0000000000e+00
5.4000000000e-01 1.0000000000e-02 0.0000000000e+00
5.5000000000e-01 1.0000000000e-02 0.0000000000e+00
5.6000000000e-01 1.0000000000e-02 0.0000000000e+00
5.7000000000e-01 1.0000000000e-02 0.0000000000e+00
5.8000000000e-01 1.0000000000e-02 0.0000000000e+00
5.9000000000e-01 1.0000000000e-02 0.0000000000e+00
6.0000000000e-01 1.0000000000e-02 0.0000000000e+00
6.1000000000e-01 1.0000000000e-02 0.0000000000e+00
6.2000000000e-01 1.0000000000e-02 0.0000000000e+00
6.3000000000e-01 1.0000000000e-02 0.0000000000e+00
6.4000000000e-01 1.0000000000e-02 0.0000000000e+00
6.5000000000e-01 1.0000000000e-02 0.0000000000e+00
6.6000000000e-01 1.0000000000e-02 0.0000000000e+00
6.7000000000e-01 1.0000000000e-02 0.0000000000e+00
6.8000000000e-01 1.0000000000e-02 0.0000000000e+00
6.9000000000e-01 1.0000000000e-02 0.0000000000e+00
7.0000000000e-01 1.0000000000e-02 0.0000000000e+00
7.1000000000e-01 1.0000000000e-02 0.0000000000e+00
7.2000000000e-01 1.0000000000e-02 0.0000000000e+00
7.3000000000e-01 1.0000000000e-02 0.0000000000e+00
7.4000000000e-01 1.0000000000e-02 0.0000000000e+00
7.5000000000e-01 1.0000000000e-02 0.0000000000e+00
7.6000000000e-01 1.0000000000e-02 0.0000000000e+00
7.7000000000e-01 1.0000000000e-02 0.0000000000e+00
7.8000000000e-01 1.0000000000e-02 0.0000000000e+00
7.9000000000e-01 1.0000000000e-02 0.0000000000e+00
8.0000000000e-01 1.0000000000e-02 0.0000000000e+00
8.1000000000e-01 1.0000000000e-02 0.0000000000e+00
8.2000000000e-01 1.0000000000e-02 0.0000000000e+00
8.3000000000e-01 1.0000000000e-02 0.0000000000e+00
8.4000000000e-01 1.0000000000e-02 0.0000000000e+00
8.5000000000e-01 1.0000000000e-02 0.0000000000e+00
8.6000000000e-01 1.0000000000e-02 0.0000000000e+00
8.7000000000e-01 1.0000000000e-02 0.0000000000e+00
8.8000000000e-01 1.0000000000e-02 0.0000000000e+00
8.9000000000e-01 1.0000000000e-02 0.0000000000e+00
9.0000000000e-01 1.0000000000e-02 0.0000000000e+00
9.1000000000e-01 1.0000000000e-02 0.0000000000e+00
9.2000000000e-01 1.0000000000e-02 0.0000000000e+00
[...]
CELL_DATA 10000

SCALARS massDensity float
LOOKUP_TABLE default
1.1863547584e+00
1.1867781064e+00
1.1873734707e+00
1.1882417088e+00
1.1893358981e+00
1.1906003950e+00
1.1919755303e+00
1.1934016303e+00
1.1948232841e+00
1.1961922496e+00
1.1974700012e+00
1.1986286035e+00
1.1996510745e+00
1.2005303367e+00
1.2012679490e+00
1.2018720277e+00
1.2023553947e+00
1.2027335008e+00
1.2030228845e+00
1.2032397471e+00
1.2033991219e+00
1.2035142333e+00
1.2035963204e+00
1.2036545722e+00
1.2036963329e+00
1.2037273182e+00
1.2037519381e+00
1.2037735693e+00
1.2037948366e+00
1.2038178335e+00
1.2038443068e+00
1.2038758014e+00
1.2039137490e+00
1.2039595484e+00
1.2040145725e+00
1.2040801927e+00
1.2041577048e+00
1.2042482858e+00
1.2043528199e+00
1.2044717646e+00
1.2046048627e+00
1.2047509372e+00
1.2049075567e+00
1.2050708891e+00
1.2052355181e+00
1.2053946139e+00
1.2055401633e+00
1.2056636730e+00
1.2057568853e+00
1.2058128945e+00
1.2058269818e+00
1.2057975744e+00
1.2057265058e+00
1.2056191525e+00
1.2054836704e+00
1.2053301947e+00
1.2051693828e+00
1.2050113350e+00
1.2048643506e+00
1.2047344108e+00
1.2046248039e+00
1.2045364283e+00
1.2044681808e+00
1.2044176681e+00
1.2043817941e+00
1.2043573430e+00
1.2043413380e+00
1.2043312778e+00
1.2043252032e+00
1.2043216805e+00
1.2043197185e+00
1.2043186692e+00
1.2043181304e+00
1.2043178649e+00
1.2043177394e+00
1.2043176826e+00
1.2043176578e+00
1.2043176475e+00
1.2043176434e+00
1.2043176419e+00
1.2043176413e+00
1.2043176411e+00
1.2043176410e+00
1.2043176410e+00
1.2043176410e+00
1.2043176410e+00
1.2043176410e+00
1.2043176410e+00
1.2043176410e+00
1.2043176410e+00
1.2043176410e+00
1.2043176410e+00
1.2043176410e+00
1.2043176410e+00
1.2043176410e+00
1.2043176410e+00
1.2043176410e+00
1.2043176410e+00
1.2043176410e+00
1.2043176410e+00
1.1867781064e+00
1.1872200495e+00
1.1878167205e+00
1.1886769006e+00
1.1897560562e+00
1.1910008421e+00
1.1923530876e+00
1.1937547708e+00
1.1951514476e+00
1.1964960523e+00
1.1977506172e+00
1.1988879406e+00
1.1998912392e+00
1.2007537703e+00
1.2014770054e+00
1.2020690899e+00
1.2025425744e+00
1.2029127509e+00
1.2031958066e+00
1.2034077024e+00
1.2035631169e+00
1.2036750190e+00
1.2037543252e+00
1.2038099785e+00
1.2038490328e+00
1.2038769578e+00
1.2038978817e+00
1.2039149102e+00
1.2039303635e+00
1.2039460113e+00
1.2039632450e+00
1.2039832130e+00
1.2040069303e+00
1.2040353337e+00
1.2040693523e+00
1.2041099051e+00
1.2041579453e+00
1.2042144053e+00
1.2042802015e+00
1.2043560985e+00
1.2044426366e+00
1.2045398807e+00
1.2046472565e+00
1.2047632162e+00
1.2048850861e+00
1.2050088296e+00
1.2051291594e+00
1.2052396709e+00
1.2053334560e+00
1.2054037011e+00
1.2054447126e+00
1.2054526247e+00
1.2054262908e+00
1.2053674265e+00
1.2052807464e+00
1.2051731546e+00
1.2050530783e+00
1.2049290990e+00
1.2048091380e+00
1.2046993883e+00
1.2046040620e+00
1.2045251300e+00
1.2044627340e+00
1.2044155338e+00
1.2043813526e+00
1.2043576201e+00
1.2043418235e+00
1.2043317337e+00
1.2043255515e+00
1.2043219155e+00
1.2043198638e+00
1.2043187527e+00
1.2043181756e+00
1.2043178880e+00
1.2043177506e+00
1.2043176877e+00
1.2043176601e+00
1.2043176485e+00
1.2043176438e+00
1.2043176420e+00
1.2043176413e+00
1.2043176411e+00
1.2043176410e+00
1.2043176410e+00
1.2043176410e+00
1.2043176410e+00
1.2043176410e+00
1.2043176410e+00
1.2043176410e+00
1.2043176410e+00
1.2043176410e+00
1.2043176410e+00
1.2043176410e+00
1.2043176410e+00
1.2043176410e+00
1.2043176410e+00
1.2043176410e+00
1.2043176410e+00
1.2043176410e+00
1.2043176410e+00
1.1873734707e+00
1.1878167205e+00
1.1883972591e+00
1.1892300014e+00
1.1902728270e+00
1.1914744035e+00
1.1927792132e+00
1.1941311405e+00
1.1954781007e+00
1.1967744657e+00
1.1979839577e+00
1.1990801309e+00
1.2000470784e+00
1.2008781383e+00
1.2015749485e+00
1.2021452486e+00
1.2026012995e+00
1.2029577587e+00
1.2032303379e+00
1.2034343533e+00
1.2035840168e+00
1.2036917684e+00
1.2037681602e+00
1.2038217565e+00
1.2038593621e+00
1.2038861981e+00
1.2039062289e+00
1.2039223974e+00
1.2039369039e+00
1.2039513969e+00
1.2039671552e+00
1.2039852141e+00
1.2040064602e+00
1.2040317122e+00
1.2040617587e+00
1.2040974204e+00
1.2041395527e+00
1.2041890972e+00
1.2042470386e+00
1.2043144072e+00
1.2043921323e+00
1.2044809250e+00
1.2045809692e+00
1.2046916672e+00
1.2048112355e+00
1.2049364850e+00
1.2050626051e+00
1.2051833363e+00
1.2052912878e+00
1.2053787511e+00
1.2054385510e+00
1.2054652372e+00
1.2054558707e+00
1.2054108292e+00
1.2053337081e+00
1.2052311359e+00
1.2051115906e+00
1.2049844766e+00
1.2048585954e+00
1.2047413845e+00
1.2046380071e+00
1.2045513689e+00
1.2044821173e+00
1.2044292656e+00
1.2043906677e+00
1.2043636882e+00
1.2043456120e+00
1.2043340062e+00
1.2043268583e+00
1.2043226374e+00
1.2043202461e+00
1.2043189471e+00
1.2043182703e+00
1.2043179322e+00
1.2043177704e+00
1.2043176962e+00
1.2043176635e+00
1.2043176498e+00
1.2043176443e+00
1.2043176422e+00
1.2043176414e+00
1.2043176411e+00
1.2043176410e+00
1.2043176410e+00
1.2043176410e+00
1.2043176410e+00
1.2043176410e+00
1.2043176410e+00
1.2043176410e+00
1.2043176410e+00
1.2043176410e+00
1.2043176410e+00
1.2043176410e+00
1.2043176410e+00
1.2043176410e+00
1.2043176410e+00
1.2043176410e+00
1.2043176410e+00
1.2043176410e+00
1.2043176410e+00
1.1882417088e+00
1.1886769006e+00
1.1892300014e+00
1.1900211936e+00
1.1910103653e+00
1.1921494097e+00
1.1933854967e+00
1.1946659872e+00
1.1959412479e+00
1.1971685166e+00
1.1983131525e+00
1.1993504913e+00
1.2002652451e+00
1.2010514059e+00
1.2017103599e+00
1.2022496549e+00
1.2026807784e+00
1.2030177543e+00
1.2032753639e+00
1.2034681956e+00
1.2036096274e+00
1.2037114832e+00
1.2037836881e+00
1.2038343697e+00
1.2038699154e+00
1.2038952686e+00
1.2039141342e+00
1.2039292819e+00
1.2039427463e+00
1.2039560512e+00
1.2039703509e+00
1.2039865625e+00
1.2040054561e+00
1.2040277217e+00
1.2040540374e+00
1.2040851072e+00
1.2041217337e+00
1.2041648387e+00
1.2042155270e+00
1.2042750464e+00
1.2043447600e+00
1.2044259426e+00
1.2045195552e+00
1.2046258219e+00
1.2047438360e+00
1.2048710911e+00
1.2050032372e+00
1.2051339997e+00
1.2052555563e+00
1.2053591955e+00
1.2054364505e+00
1.2054802366e+00
1.2054861591e+00
1.2054532008e+00
1.2053842420e+00
1.2052854838e+00
1.2051658098e+00
1.2050351716e+00
1.2049034882e+00
1.2047791063e+00
1.2046682687e+00
1.2045745249e+00
1.2044990977e+00
1.2044411720e+00
1.2043986830e+00
1.2043688536e+00
1.2043488104e+00
1.2043359028e+00
1.2043279389e+00
1.2043232270e+00
1.2043205551e+00
1.2043191021e+00
1.2043183449e+00
1.2043179666e+00
1.2043177855e+00
1.2043177025e+00
1.2043176661e+00
1.2043176508e+00
1.2043176447e+00
1.2043176423e+00
1.2043176415e+00
1.2043176411e+00
1.2043176410e+00
1.2043176410e+00
1.2043176410e+00
1.2043176410e+00
1.2043176410e+00
1.2043176410e+00
1.2043176410e+00
1.2043176410e+00
1.2043176410e+00
1.2043176410e+00
1.2043176410e+00
1.2043176410e+00
1.2043176410e+00
1.2043176410e+00
1.2043176410e+00
1.2043176410e+00
1.2043176410e+00
1.2043176410e+00
1.1893358981e+00
1.1897560562e+00
1.1902728270e+00
1.1910103653e+00
1.1919316588e+00
1.1929915840e+00
1.1941415039e+00
1.1953320795e+00
1.1965176705e+00
1.1976581528e+00
1.1987217828e+00
1.1996853338e+00
1.2005349766e+00
1.2012649058e+00
1.2018766996e+00
1.2023772149e+00
1.2027773293e+00
1.2030899596e+00
1.2033289697e+00
1.2035078272e+00
1.2036390372e+00
1.2037335156e+00
1.2038005234e+00
1.2038475547e+00
1.2038805607e+00
1.2039040868e+00
1.2039215747e+00
1.2039355544e+00
1.2039478989e+00
1.2039599772e+00
1.2039728221e+00
1.2039872284e+00
1.2040038478e+00
1.2040232571e+00
1.2040460172e+00
1.2040727486e+00
1.2041041883e+00
1.2041412859e+00
1.2041852455e+00
1.2042375830e+00
1.2043000524e+00
1.2043745230e+00
1.2044626496e+00
1.2045654632e+00
1.2046828012e+00
1.2048127807e+00
1.2049513540e+00
1.2050921829e+00
1.2052268868e+00
1.2053458097e+00
1.2054391405e+00
1.2054983961e+00
1.2055177156e+00
1.2054950766e+00
1.2054325721e+00
1.2053364032e+00
1.2052156404e+00
1.2050811266e+00
1.2049435485e+00
1.2048123774e+00
1.2046945648e+00
1.2045944229e+00
1.2045134688e+00
1.2044511329e+00
1.2044052812e+00
1.2043730525e+00
1.2043513650e+00
1.2043373960e+00
1.2043287733e+00
1.2043236746e+00
1.2043207845e+00
1.2043192148e+00
1.2043183978e+00
1.2043179903e+00
1.2043177957e+00
1.2043177067e+00
1.2043176677e+00
1.2043176514e+00
1.2043176449e+00
1.2043176424e+00
1.2043176415e+00
1.2043176412e+00
1.2043176410e+00
1.2043176410e+00
1.2043176410e+00
1.2043176410e+00
1.2043176410e+00
1.2043176410e+00
1.2043176410e+00
1.2043176410e+00
1.2043176410e+00
1.2043176410e+00
1.2043176410e+00
1.2043176410e+00
1.2043176410e+00
1.2043176410e+00
1.2043176410e+00
1.2043176410e+00
1.2043176410e+00
1.2043176410e+00
1.1906003950e+00
1.1910008421e+00
1.1914744035e+00
1.1921494097e+00
1.1929915840e+00
1.1939601285e+00
1.1950101751e+00
1.1960971953e+00
1.1971790901e+00
1.1982197490e+00
1.1991898320e+00
1.2000685932e+00
1.2008431322e+00
1.2015085099e+00
1.2020659647e+00
1.2025220111e+00
1.2028864289e+00
1.2031711727e+00
1.2033887830e+00
1.2035516484e+00
1.2036710939e+00
1.2037571343e+00
1.2038181525e+00
1.2038610136e+00
1.2038910943e+00
1.2039125520e+00
1.2039284828e+00
1.2039411905e+00
1.2039523412e+00
1.2039631611e+00
1.2039745426e+00
1.2039871650e+00
1.2040015630e+00
1.2040182015e+00
1.2040375440e+00
1.2040601261e+00
1.2040866574e+00
1.2041181124e+00
1.2041558439e+00
1.2042016240e+00
1.2042576394e+00
1.2043263128e+00
1.2044099916e+00
1.2045104226e+00
1.2046281187e+00
1.2047616827e+00
1.2049072582e+00
1.2050583067e+00
1.2052058292e+00
1.2053391550e+00
1.2054472328e+00
1.2055201893e+00
1.2055510104e+00
1.2055366683e+00
1.2054789157e+00
1.2053838193e+00
1.2052610712e+00
1.2051220887e+00
1.2049786441e+00
1.2048409144e+00
1.2047167498e+00
1.2046108462e+00
1.2045251267e+00
1.2044590220e+00
1.2044104066e+00
1.2043762267e+00
1.2043532523e+00
1.2043384646e+00
1.2043293535e+00
1.2043239741e+00
1.2043209323e+00
1.2043192840e+00
1.2043184285e+00
1.2043180032e+00
1.2043178008e+00
1.2043177086e+00
1.2043176684e+00
1.2043176516e+00
1.2043176449e+00
1.2043176424e+00
1.2043176415e+00
1.2043176412e+00
1.2043176410e+00
1.2043176410e+00
1.2043176410e+00
1.2043176410e+00
1.2043176410e+00
1.2043176410e+00
1.2043176410e+00
1.2043176410e+00
1.2043176410e+00
1.2043176410e+00
1.2043176410e+00
1.2043176410e+00
1.2043176410e+00
1.2043176410e+00
1.2043176410e+00
1.2043176410e+00
1.2043176410e+00
1.2043176410e+00
1.1919755303e+00
1.1923530876e+00
1.1927792132e+00
1.1933854967e+00
1.1941415039e+00
1.1950101751e+00
1.1959517617e+00
1.1969258741e+00
1.1978953094e+00
1.1988272857e+00
1.1996960100e+00
1.2004825598e+00
1.2011757935e+00
1.2017710399e+00
1.2022697221e+00
1.2026774989e+00
1.2030033451e+00
1.2032578392e+00
1.2034523480e+00
1.2035978694e+00
1.2037046242e+00
1.2037815064e+00
1.2038360656e+00
1.2038743917e+00
1.2039013209e+00
1.2039205296e+00
1.2039347966e+00
1.2039461434e+00
1.2039560520e+00
1.2039655748e+00
1.2039754798e+00
1.2039863192e+00
1.2039985200e+00
1.2040124418e+00
1.2040284575e+00
1.2040470433e+00
1.2040688904e+00
1.2040950411e+00
1.2041270069e+00
1.2041668627e+00
1.2042172224e+00
1.2042810784e+00
1.2043614227e+00
1.2044606619e+00
1.2045798790e+00
1.2047180256e+00
1.2048713038e+00
1.2050328252e+00
1.2051928826e+00
1.2053397592e+00
1.2054611675e+00
1.2055460366e+00
1.2055862501e+00
1.2055781813e+00
1.2055232020e+00
1.2054277335e+00
1.2053018462e+00
1.2051579503e+00
1.2050084801e+00
1.2048645987e+00
1.2047345953e+00
1.2046237162e+00
1.2045339396e+00
1.2044648036e+00
1.2044140014e+00
1.2043783658e+00
1.2043544537e+00
1.2043391079e+00
1.2043296760e+00
1.2043241267e+00
1.2043209987e+00
1.2043193105e+00
1.2043184377e+00
1.2043180057e+00
1.2043178011e+00
1.2043177083e+00
1.2043176681e+00
1.2043176514e+00
1.2043176448e+00
1.2043176424e+00
1.2043176415e+00
1.2043176411e+00
1.2043176410e+00
1.2043176410e+00
1.2043176410e+00
1.2043176410e+00
1.2043176410e+00
1.2043176410e+00
1.2043176410e+00
1.2043176410e+00
1.2043176410e+00
1.2043176410e+00
1.2043176410e+00
1.2043176410e+00
1.2043176410e+00
1.2043176410e+00
1.2043176410e+00
1.2043176410e+00
1.2043176410e+00
1.2043176410e+00
1.1934016303e+00
1.1937547708e+00
1.1941311405e+00
1.1946659872e+00
1.1953320795e+00
1.1960971953e+00
1.1969258741e+00
1.1977830740e+00
1.1986356107e+00
1.1994551541e+00
1.2002186385e+00
1.2009098731e+00
1.2015187717e+00
1.2020415864e+00
1.2024793602e+00
1.2028373280e+00
1.2031232306e+00
1.2033465387e+00
1.2035171345e+00
1.2036447895e+00
1.2037384044e+00
1.2038058562e+00
1.2038537164e+00
1.2038873700e+00
1.2039110172e+00
1.2039279045e+00
1.2039404312e+00
1.2039503739e+00
1.2039589913e+00
1.2039671887e+00
1.2039755873e+00
1.2039846300e+00
1.2039946306e+00
1.2040058570e+00
1.2040186039e+00
1.2040333051e+00
1.2040506660e+00
1.2040718201e+00
1.2040984839e+00
1.2041330556e+00
1.2041786070e+00
1.2042386918e+00
1.2043169133e+00
1.2044162717e+00
1.2045382868e+00
1.2046821431e+00
1.2048438993e+00
1.2050162136e+00
1.2051885214e+00
1.2053480453e+00
1.2054813128e+00
1.2055761308e+00
1.2056235940e+00
1.2056195222e+00
1.2055653983e+00
1.2054678556e+00
1.2053378422e+00
1.2051883800e+00
1.2050329450e+00
1.2048831778e+00
1.2047480471e+00
1.2046328940e+00
1.2045399015e+00
1.2044684248e+00
1.2044160804e+00
1.2043794603e+00
1.2043549849e+00
1.2043393295e+00
1.2043297502e+00
1.2043241365e+00
1.2043209878e+00
1.2043192964e+00
1.2043184267e+00
1.2043179986e+00
1.2043177970e+00
1.2043177062e+00
1.2043176670e+00
1.2043176510e+00
1.2043176446e+00
1.2043176423e+00
1.2043176414e+00
1.2043176411e+00
1.2043176410e+00
1.2043176410e+00
1.2043176410e+00
1.2043176410e+00
1.2043176410e+00
1.2043176410e+00
1.2043176410e+00
1.2043176410e+00
1.2043176410e+00
1.2043176410e+00
1.2043176410e+00
1.2043176410e+00
1.2043176410e+00
1.2043176410e+00
1.2043176410e+00
1.2043176410e+00
1.2043176410e+00
1.2043176410e+00
1.1948232841e+00
1.1951514476e+00
1.1954781007e+00
1.1959412479e+00
1.1965176705e+00
1.1971790901e+00
1.1978953094e+00
1.1986356107e+00
1.1993718203e+00
1.2000790739e+00
1.2007379178e+00
1.2013340541e+00
1.2018591649e+00
1.2023097782e+00
1.2026870895e+00
1.2029954460e+00
1.2032417319e+00
1.2034339957e+00
1.2035808939e+00
1.2036907652e+00
1.2037713655e+00
1.2038294198e+00
1.2038706413e+00
1.2038996200e+00
1.2039200026e+00
1.2039345440e+00
1.2039453216e+00
1.2039538236e+00
1.2039611251e+00
1.2039679549e+00
1.2039748148e+00
1.2039820225e+00
1.2039897987e+00
1.2039983206e+00
1.2040078265e+00
1.2040187288e+00
1.2040317785e+00
1.2040482410e+00
1.2040700755e+00
1.2041000434e+00
1.2041416980e+00
1.2041991449e+00
1.2042765733e+00
1.2043774655e+00
1.2045036899e+00
1.2046544445e+00
1.2048255377e+00
1.2050089386e+00
1.2051931873e+00
1.2053643562e+00
1.2055078643e+00
1.2056105797e+00
1.2056629190e+00
1.2056605892e+00
1.2056051534e+00
1.2055040003e+00
1.2053686587e+00
1.2052132362e+00
1.2050517362e+00
1.2048966056e+00
1.2047569478e+00
1.2046384066e+00
1.2045429660e+00
1.2044699376e+00
1.2044166494e+00
1.2043795533e+00
1.2043548627e+00
1.2043391545e+00
1.2043295884e+00
1.2043240149e+00
1.2043209056e+00
1.2043192458e+00
1.2043183976e+00
1.2043179830e+00
1.2043177891e+00
1.2043177024e+00
1.2043176653e+00
1.2043176502e+00
1.2043176443e+00
1.2043176422e+00
1.2043176414e+00
1.2043176411e+00
1.2043176410e+00
1.2043176410e+00
1.2043176410e+00
1.2043176410e+00
1.2043176410e+00
1.2043176410e+00
1.2043176410e+00
1.2043176410e+00
1.2043176410e+00
1.2043176410e+00
1.2043176410e+00
1.2043176410e+00
1.2043176410e+00
1.2043176410e+00
1.2043176410e+00
1.2043176410e+00
1.2043176410e+00
1.2043176410e+00
1.1961922496e+00
1.1964960523e+00
1.1967744657e+00
1.1971685166e+00
1.1976581528e+00
1.1982197490e+00
1.1988272857e+00
1.1994551541e+00
1.2000790739e+00
1.2006784141e+00
1.2012363517e+00
1.2017411680e+00
1.2021855563e+00
1.2025668931e+00
1.2028860022e+00
1.2031467978e+00
1.2033549738e+00
1.2035175013e+00
1.2036416104e+00
1.2037344579e+00
1.2038025346e+00
1.2038515910e+00
1.2038864042e+00
1.2039108922e+00
1.2039280931e+00
1.2039403537e+00
1.2039493869e+00
1.2039564493e+00
1.2039623994e+00
1.2039678276e+00
1.2039730929e+00
1.2039784157e+00
1.2039839140e+00
1.2039897004e+00
1.2039959666e+00
1.2040031393e+00
1.2040120466e+00
1.2040241346e+00
1.2040416470e+00
1.2040677560e+00
1.2041065073e+00
1.2041625705e+00
1.2042406390e+00
1.2043446240e+00
1.2044765315e+00
1.2046354751e+00
1.2048167254e+00
1.2050115037e+00
1.2052072431e+00
1.2053889268e+00
1.2055409009e+00
1.2056492452e+00
1.2057040404e+00
1.2057009563e+00
1.2056421768e+00
1.2055356637e+00
1.2053940746e+00
1.2052321302e+00
1.2050647834e+00
1.2049046835e+00
1.2047613490e+00
1.2046402076e+00
1.2045432302e+00
1.2044693678e+00
1.2044157923e+00
1.2043786832e+00
1.2043541387e+00
1.2043386093e+00
1.2043292148e+00
1.2043237748e+00
1.2043207614e+00
1.2043191637e+00
1.2043183535e+00
1.2043179604e+00
1.2043177781e+00
1.2043176973e+00
1.2043176631e+00
1.2043176493e+00
1.2043176440e+00
1.2043176420e+00
1.2043176413e+00
1.2043176411e+00
1.2043176410e+00
1.2043176410e+00
1.2043176410e+00
1.2043176410e+00
1.2043176410e+00
1.2043176410e+00
1.2043176410e+00
1.2043176410e+00
1.2043176410e+00
1.2043176410e+00
1.2043176410e+00
1.2043176410e+00
1.2043176410e+00
1.2043176410e+00
1.2043176410e+00
1.2043176410e+00
1.2043176410e+00
1.2043176410e+00
1.1974700012e+00
1.1977506172e+00
1.1979839577e+00
1.1983131525e+00
1.1987217828e+00
1.1991898320e+00
1.1996960100e+00
1.2002186385e+00
1.2007379178e+00
1.2012363517e+00
1.2017003302e+00
1.2021198368e+00
1.2024891202e+00
1.2028057962e+00
1.2030707993e+00
1.2032872356e+00
1.2034600138e+00
1.2035948199e+00
1.2036977765e+00
1.2037747497e+00
1.2038312027e+00
1.2038718498e+00
1.2039007008e+00
1.2039209585e+00
1.2039351680e+00
1.2039452313e+00
1.2039525745e+00
1.2039581893e+00
1.2039627691e+00
1.2039667381e+00
1.2039703494e+00
1.2039737076e+00
1.2039768595e+00
1.2039798516e+00
1.2039828678e+00
1.2039863700e+00
1.2039913181e+00
1.2039993776e+00
1.2040131408e+00
1.2040362156e+00
1.2040731833e+00
1.2041292269e+00
1.2042095274e+00
1.2043182397e+00
1.2044574294e+00
1.2046258180e+00
1.2048180664e+00
1.2050243436e+00
1.2052310112e+00
1.2054218528e+00
1.2055803065e+00
1.2056918741e+00
1.2057464649e+00
1.2057402013e+00
1.2056758364e+00
1.2055624939e+00
1.2054135740e+00
1.2052449195e+00
1.2050718114e+00
1.2049074636e+00
1.2047611877e+00
1.2046384396e+00
1.2045407404e+00
1.2044668532e+00
1.2044135770e+00
1.2043769408e+00
1.2043528613e+00
1.2043377400e+00
1.2043286545e+00
1.2043234348e+00
1.2043205650e+00
1.2043190562e+00
1.2043182974e+00
1.2043179325e+00
1.2043177649e+00
1.2043176914e+00
1.2043176606e+00
1.2043176483e+00
1.2043176436e+00
1.2043176419e+00
1.2043176413e+00
1.2043176411e+00
1.2043176410e+00
1.2043176410e+00
1.2043176410e+00
1.2043176410e+00
1.2043176410e+00
1.2043176410e+00
1.2043176410e+00
1.2043176410e+00
1.2043176410e+00
1.2043176410e+00
1.2043176410e+00
1.2043176410e+00
1.2043176410e+00
1.2043176410e+00
1.2043176410e+00
1.2043176410e+00
1.2043176410e+00
1.2043176410e+00
1.1986286035e+00
1.1988879406e+00
1.1990801309e+00
1.1993504913e+00
1.1996853338e+00
1.2000685932e+00
1.2004825598e+00
1.2009098731e+00
1.2013340541e+00
1.2017411680e+00
1.2021198368e+00
1.2024621994e+00
1.2027633524e+00
1.2030216056e+00
1.2032375658e+00
1.2034139565e+00
1.2035546679e+00
1.2036644671e+00
1.2037482619e+00
1.2038109185e+00
1.2038568251e+00
1.2038898751e+00
1.2039132830e+00
1.2039296872e+00
1.2039411131e+00
1.2039491195e+00
1.2039548163e+00
1.2039589984e+00
1.2039621645e+00
1.2039646195e+00
1.2039664857e+00
1.2039677899e+00
1.2039684965e+00
1.2039686274e+00
1.2039683686e+00
1.2039682748e+00
1.2039694700e+00
1.2039739130e+00
1.2039845774e+00
1.2040055738e+00
1.2040419961e+00
1.2040995590e+00
1.2041837807e+00
1.2042990083e+00
1.2044470652e+00
1.2046262052e+00
1.2048301146e+00
1.2050479169e+00
1.2052646623e+00
1.2054630920e+00
1.2056257988e+00
1.2057379350e+00
1.2057896355e+00
1.2057775548e+00
1.2057056047e+00
1.2055838076e+00
1.2054268840e+00
1.2052512072e+00
1.2050728320e+00
1.2049048376e+00
1.2047566407e+00
1.2046331628e+00
1.2045356973e+00
1.2044624974e+00
1.2044101491e+00
1.2043744065e+00
1.2043511102e+00
1.2043365905e+00
1.2043279419e+00
1.2043230135e+00
1.2043203286e+00
1.2043189296e+00