# vtk DataFile Version 2.0
Blank
ASCII
DATASET STRUCTURED_GRID
DIMENSIONS 101 101 2
POINTS 20402 float
0.0000000000e+00 0.0000000000e+00 0.0000000000e+00
1.0000000000e-02 0.0000000000e+00 0.0000000000e+00
2.0000000000e-02 0.0000000000e+00 0.0000000000e+00
3.0000000000e-02 0.0000000000e+00 0.0000000000e+00
4.0000000000e-02 0.0000000000e+00 0.0000000000e+00
5.0000000000e-02 0.0000000000e+00 0.0000000000e+00
6.0000000000e-02 0.0000000000e+00 0.0000000000e+00
7.0000000000e-02 0.0000000000e+00 0.0000000000e+00
8.0000000000e-02 0.0000000000e+00 0.0000000000e+00
9.0000000000e-02 0.0000000000e+00 0.0000000000e+00
1.0000000000e-01 0.0000000000e+00 0.0000000000e+00
1.1000000000e-01 0.0000000000e+00 0.0000000000e+00
1.2000000000e-01 0.0000000000e+00 0.0000000000e+00
1.3000000000e-01 0.0000000000e+00 0.0000000000e+00
1.4000000000e-01 0.0000000000e+00 0.0000000000e+00
1.5000000000e-01 0.0000000000e+00 0.0000000000e+00
1.6000000000e-01 0.0000000000e+00 0.0000000000e+00
1.7000000000e-01 0.0000000000e+00 0.0000000000e+00
1.8000000000e-01 0.0000000000e+00 0.0000000000e+00
1.9000000000e-01 0.0000000000e+00 0.0000000000e+00
2.0000000000e-01 0.0000000000e+00 0.0000000000e+00
2.1000000000e-01 0.0000000000e+00 0.0000000000e+00
2.2000000000e-01 0.0000000000e+00 0.0000000000e+00
2.3000000000e-01 0.0000000000e+00 0.0000000000e+00
2.4000000000e-01 0.0000000000e+00 0.0000000000e+00
2.5000000000e-01 0.0000000000e+00 0.0000000000e+00
2.6000000000e-01 0.0000000000e+00 0.0000000000e+00
2.7000000000e-01 0.0000000000e+00 0.0000000000e+00
2.8000000000e-01 0.0000000000e+00 0.0000000000e+00
2.9000000000e-01 0.0000000000e+00 0.0000000000e+00
3.0000000000e-01 0.0000000000e+00 0.0000000000e+00
3.1000000000e-01 0.0000000000e+00 0.0000000000e+00
3.2000000000e-01 0.0000000000e+00 0.0000000000e+00
3.3000000000e-01 0.0000000000e+00 0.0000000000e+00
3.4000000000e-01 0.0000000000e+00 0.0000000000e+00
3.5000000000e-01 0.0000000000e+00 0.0000000000e+00
3.6000000000e-01 0.0000000000e+00 0.0000000000e+00
3.7000000000e-01 0.0000000000e+00 0.0000000000e+00
3.8000000000e-01 0.0000000000e+00 0.0000000000e+00
3.9000000000e-01 0.0000000000e+00 0.0000000000e+00
4.0000000000e-01 0.0000000000e+00 0.0000000000e+00
4.1000000000e-01 0.0000000000e+00 0.0000000000e+00
4.2000000000e-01 0.0000000000e+00 0.0000000000e+00
4.3000000000e-01 0.0000000000e+00 0.0000000000e+00
4.4000000000e-01 0.0000000000e+00 0.0000000000e+00
4.5000000000e-01 0.0000000000e+00 0.0000000000e+00
4.6000000000e-01 0.0000000000e+00 0.0000000000e+00
4.7000000000e-01 0.0000000000e+00 0.0000000000e+00
4.8000000000e-01 0.0000000000e+00 0.0000000000e+00
4.9000000000e-01 0.0000000000e+00 0.0000000000e+00
5.0000000000e-01 0.0000000000e+00 0.0000000000e+00
5.1000000000e-01 0.0000000000e+00 0.0000000000e+00
5.2000000000e-01 0.0000000000e+00 0.0000000000e+00
5.3000000000e-01 0.0000000000e+00 0.0000000000e+00
5.4000000000e-01 0.0000000000e+00 0.0000000000e+00
5.5000000000e-01 0.0000000000e+00 0.0000000000e+00
5.6000000000e-01 0.0000000000e+00 0.0000000000e+00
5.7000000000e-01 0.0000000000e+00 0.0000000000e+00
5.8000000000e-01 0.0000000000e+00 0.0000000000e+00
5.9000000000e-01 0.0000000000e+00 0.0000000000e+00
6.0000000000e-01 0.0000000000e+00 0.0000000000e+00
6.1000000000e-01 0.0000000000e+00 0.0000000000e+00
6.2000000000e-01 0.0000000000e+00 0.0000000000e+00
6.3000000000e-01 0.0000000000e+00 0.0000000000e+00
6.4000000000e-01 0.0000000000e+00 0.0000000000e+00
6.5000000000e-01 0.0000000000e+00 0.0000000000e+00
6.6000000000e-01 0.0000000000e+00 0.0000000000e+00
6.7000000000e-01 0.0000000000e+00 0.0000000000e+00
6.8000000000e-01 0.0000000000e+00 0.0000000000e+00
6.9000000000e-01 0.0000000000e+00 0.0000000000e+00
7.0000000000e-01 0.0000000000e+00 0.0000000000e+00
7.1000000000e-01 0.0000000000e+00 0.0000000000e+00
7.2000000000e-01 0.0000000000e+00 0.0000000000e+00
7.3000000000e-01 0.0000000000e+00 0.0000000000e+00
7.4000000000e-01 0.0000000000e+00 0.0000000000e+00
7.5000000000e-01 0.0000000000e+00 0.0000000000e+00
7.6000000000e-01 0.0000000000e+00 0.0000000000e+00
7.7000000000e-01 0.0000000000e+00 0.0000000000e+00
7.8000000000e-01 0.0000000000e+00 0.0000000000e+00
7.9000000000e-01 0.0000000000e+00 0.0000000000e+00
8.0000000000e-01 0.0000000000e+00 0.0000000000e+00
8.1000000000e-01 0.0000000000e+00 0.0000000000e+00
8.2000000000e-01 0.0000000000e+00 0.0000000000e+00
8.3000000000e-01 0.0000000000e+00 0.0000000000e+00
8.4000000000e-01 0.0000000000e+00 0.0000000000e+00
8.5000000000e-01 0.0000000000e+00 0.0000000000e+00
8.6000000000e-01 0.0000000000e+00 0.0000000000e+00
8.7000000000e-01 0.0000000000e+00 0.0000000000e+00
8.8000000000e-01 0.0000000000e+00 0.0000000000e+00
8.9000000000e-01 0.0000000000e+00 0.0000000000e+00
9.0000000000e-01 0.0000000000e+00 0.0000000000e+00
9.1000000000e-01 0.0000000000e+00 0.0000000000e+00
9.2000000000e-01 0.0000000000e+00 0.0000000000e+00
9.3000000000e-01 0.0000000000e+00 0.0000000000e+00
9.4000000000e-01 0.0000000000e+00 0.0000000000e+00
9.5000000000e-01 0.0000000000e+00 0.0000000000e+00
9.6000000000e-01 0.0000000000e+00 0.0000000000e+00
9.7000000000e-01 0.0000000000e+00 0.0000000000e+00
9.8000000000e-01 0.0000000000e+00 0.0000000000e+00
9.9000000000e-01 0.0000000000e+00 0.0000000000e+00
1.0000000000e+00 0.0000000000e+00 0.0000000000e+00
0.0000000000e+00 1.0000000000e-02 0.0000000000e+00
1.0000000000e-02 1.0000000000e-02 0.0000000000e+00
2.0000000000e-02 1.0000000000e-02 0.0000000000e+00
3.0000000000e-02 1.0000000000e-02 0.0000000000e+00
4.0000000000e-02 1.0000000000e-02 0.0000000000e+00
5.0000000000e-02 1.0000000000e-02 0.0000000000e+00
6.0000000000e-02 1.0000000000e-02 0.0000000000e+00
7.0000000000e-02 1.0000000000e-02 0.0000000000e+00
8.0000000000e-02 1.0000000000e-02 0.0000000000e+00
9.0000000000e-02 1.0000000000e-02 0.0000000000e+00
1.0000000000e-01 1.0000000000e-02 0.0000000000e+00
1.1000000000e-01 1.0000000000e-02 0.0000000000e+00
1.2000000000e-01 1.0000000000e-02 0.0000000000e+00
1.3000000000e-01 1.0000000000e-02 0.0000000000e+00
1.4000000000e-01 1.0000000000e-02 0.0000000000e+00
1.5000000000e-01 1.0000000000e-02 0.0000000000e+00
1.6000000000e-01 1.0000000000e-02 0.0000000000e+00
1.7000000000e-01 1.0000000000e-02 0.0000000000e+00
1.8000000000e-01 1.0000000000e-02 0.0000000000e+00
1.9000000000e-01 1.0000000000e-02 0.0000000000e+00
2.0000000000e-01 1.0000000000e-02 0.0000000000e+00
2.1000000000e-01 1.0000000000e-02 0.0000000000e+00
2.2000000000e-01 1.0000000000e-02 0.0000000000e+00
2.3000000000e-01 1.0000000000e-02 0.0000000000e+00
2.4000000000e-01 1.0000000000e-02 0.0000000000e+00
2.5000000000e-01 1.0000000000e-02 0.0000000000e+00
2.6000000000e-01 1.0000000000e-02 0.0000000000e+00
2.7000000000e-01 1.0000000000e-02 0.0000000000e+00
2.8000000000e-01 1.0000000000e-02 0.0000000000e+00
2.9000000000e-01 1.0000000000e-02 0.0000000000e+00
3.0000000000e-01 1.0000000000e-02 0.0000000000e+00
3.1000000000e-01 1.0000000000e-02 0.0000000000e+00
3.2000000000e-01 1.0000000000e-02 0.0000000000e+00
3.3000000000e-01 1.0000000000e-02 0.0000000000e+00
3.4000000000e-01 1.0000000000e-02 0.0000000000e+00
3.5000000000e-01 1.0000000000e-02 0.0000000000e+00
3.6000000000e-01 1.0000000000e-02 0.0000000000e+00
3.7000000000e-01 1.0000000000e-02 0.0000000000e+00
3.8000000000e-01 1.0000000000e-02 0.0000000000e+00
3.9000000000e-01 1.0000000000e-02 0.0000000000e+00
4.0000000000e-01 1.0000000000e-02 0.0000000000e+00
4.1000000000e-01 1.0000000000e-02 0.0000000000e+00
4.2000000000e-01 1.0000000000e-02 0.0000000000e+00
4.3000000000e-01 1.0000000000e-02 0.0000000000e+00
4.4000000000e-01 1.0000000000e-02 0.0000000000e+00
4.5000000000e-01 1.0000000000e-02 0.0000000000e+00
4.6000000000e-01 1.0000000000e-02 0.0000000000e+00
4.7000000000e-01 1.0000000000e-02 0.0000000000e+00
4.8000000000e-01 1.0000000000e-02 0.0000000000e+00
4.9000000000e-01 1.0000000000e-02 0.0000000000e+00
5.0000000000e-01 1.0000000000e-02 0.0000000000e+00
5.1000000000e-01 1.0000000000e-02 0.0000000000e+00
5.2000000000e-01 1.0000000000e-02 0.0000000000e+00
5.3000000000e-01 1.0000000000e-02 0.0000000000e+00
5.4000000000e-01 1.0000000000e-02 0.0000000000e+00
5.5000000000e-01 1.0000000000e-02 0.0000000000e+00
5.6000000000e-01 1.0000000000e-02 0.0000000000e+00
5.7000000000e-01 1.0000000000e-02 0.0000000000e+00
5.8000000000e-01 1.0000000000e-02 0.0000000000e+00
5.9000000000e-01 1.0000000000e-02 0.0000000000e+00
6.0000000000e-01 1.0000000000e-02 0.0000000000e+00
6.1000000000e-01 1.0000000000e-02 0.0000000000e+00
6.2000000000e-01 1.0000000000e-02 0.0000000000e+00
6.3000000000e-01 1.0000000000e-02 0.0000000000e+00
6.4000000000e-01 1.0000000000e-02 0.0000000000e+00
6.5000000000e-01 1.0000000000e-02 0.0000000000e+00
6.6000000000e-01 1.0000000000e-02 0.0000000000e+00
6.7000000000e-01 1.0000000000e-02 0.0000000000e+00
6.8000000000e-01 1.0000000000e-02 0.0000000000e+00
6.9000000000e-01 1.0000000000e-02 0.0000000000e+00
7.0000000000e-01 1.0000000000e-02 0.0000000000e+00
7.1000000000e-01 1.0000000000e-02 0.0000000000e+00
7.2000000000e-01 1.0000000000e-02 0.0000000000e+00
7.3000000000e-01 1.0000000000e-02 0.0000000000e+00
7.4000000000e-01 1.0000000000e-02 0.0000000000e+00
7.5000000000e-01 1.0000000000e-02 0.0000000000e+00
7.6000000000e-01 1.0000000000e-02 0.0000000000e+00
7.7000000000e-01 1.0000000000e-02 0.0000000000e+00
7.8000000000e-01 1.0000000000e-02 0.0000000000e+00
7.9000000000e-01 1.0000000000e-02 0.0000000000e+00
8.0000000000e-01 1.0000000000e-02 0.0000000000e+00
8.1000000000e-01 1.0000000000e-02 0.0000000000e+00
8.2000000000e-01 1.0000000000e-02 0.0000000000e+00
8.3000000000e-01 1.0000000000e-02 0.0000000000e+00
8.4000000000e-01 1.0000000000e-02 0.0000000000e+00
8.5000000000e-01 1.0000000000e-02 0.0000000000e+00
8.6000000000e-01 1.0000000000e-02 0.0000000000e+00
8.7000000000e-01 1.0000000000e-02 0.0000000000e+00
8.8000000000e-01 1.0000000000e-02 0.0000000000e+00
8.9000000000e-01 1.0000000000e-02 0.0000000000e+00
9.0000000000e-01 1.0000000000e-02 0.0000000000e+00
9.1000000000e-01 1.0000000000e-02 0.0000000000e+00
9.2000000000e-01 1.0000000000e-02 0.0000000000e+00
[...]
CELL_DATA 10000

SCALARS massDensity float
LOOKUP_TABLE default
1.1996709967e+00
1.1996816834e+00
1.1997429109e+00
1.1998264349e+00
1.1999313483e+00
1.2000563897e+00
1.2001999468e+00
1.2003601111e+00
1.2005347377e+00
1.2007215150e+00
1.2009180245e+00
1.2011218056e+00
1.2013304084e+00
1.2015414498e+00
1.2017526547e+00
1.2019619009e+00
1.2021672463e+00
1.2023669589e+00
1.2025595307e+00
1.2027436919e+00
1.2029184107e+00
1.2030828950e+00
1.2032365795e+00
1.2033791175e+00
1.2035103596e+00
1.2036303375e+00
1.2037392392e+00
1.2038373891e+00
1.2039252212e+00
1.2040032598e+00
1.2040720940e+00
1.2041323607e+00
1.2041847224e+00
1.2042298542e+00
1.2042684260e+00
1.2043010937e+00
1.2043284864e+00
1.2043512017e+00
1.2043697977e+00
1.2043847915e+00
1.2043966550e+00
1.2044058163e+00
1.2044126583e+00
1.2044175220e+00
1.2044207067e+00
1.2044224749e+00
1.2044230529e+00
1.2044226364e+00
1.2044213918e+00
1.2044194611e+00
1.2044169635e+00
1.2044140001e+00
1.2044106545e+00
1.2044069978e+00
1.2044030881e+00
1.2043989754e+00
1.2043947004e+00
1.2043902986e+00
1.2043857990e+00
1.2043812279e+00
1.2043766070e+00
1.2043719565e+00
1.2043672935e+00
1.2043626347e+00
1.2043579944e+00
1.2043533866e+00
1.2043488238e+00
1.2043443186e+00
1.2043398819e+00
1.2043355248e+00
1.2043312570e+00
1.2043270882e+00
1.2043230267e+00
1.2043190808e+00
1.2043152574e+00
1.2043115631e+00
1.2043080031e+00
1.2043045826e+00
1.2043013052e+00
1.2042981745e+00
1.2042951930e+00
1.2042923628e+00
1.2042896856e+00
1.2042871628e+00
1.2042847958e+00
1.2042825862e+00
1.2042805359e+00
1.2042786480e+00
1.2042769266e+00
1.2042753778e+00
1.2042740106e+00
1.2042728376e+00
1.2042718777e+00
1.2042711578e+00
1.2042707168e+00
1.2042706109e+00
1.2042709192e+00
1.2042717482e+00
1.2042732265e+00
1.2042643523e+00
1.1996816834e+00
1.1996848567e+00
1.1997416305e+00
1.1998211856e+00
1.1999223998e+00
1.2000438735e+00
1.2001839296e+00
1.2003406375e+00
1.2005118644e+00
1.2006953221e+00
1.2008886295e+00
1.2010893605e+00
1.2012951046e+00
1.2015035088e+00
1.2017123293e+00
1.2019194630e+00
1.2021229862e+00
1.2023211731e+00
1.2025125207e+00
1.2026957528e+00
1.2028698310e+00
1.2030339467e+00
1.2031875196e+00
1.2033301801e+00
1.2034617588e+00
1.2035822620e+00
1.2036918563e+00
1.2037908409e+00
1.2038796300e+00
1.2039587253e+00
1.2040286991e+00
1.2040901699e+00
1.2041437872e+00
1.2041902118e+00
1.2042301046e+00
1.2042641112e+00
1.2042928553e+00
1.2043169274e+00
1.2043368827e+00
1.2043532337e+00
1.2043664515e+00
1.2043769613e+00
1.2043851463e+00
1.2043913454e+00
1.2043958591e+00
1.2043989481e+00
1.2044008400e+00
1.2044017292e+00
1.2044017829e+00
1.2044011418e+00
1.2043999258e+00
1.2043982340e+00
1.2043961508e+00
1.2043937449e+00
1.2043910747e+00
1.2043881876e+00
1.2043851241e+00
1.2043819170e+00
1.2043785950e+00
1.2043751812e+00
1.2043716969e+00
1.2043681593e+00
1.2043645847e+00
1.2043609869e+00
1.2043573793e+00
1.2043537735e+00
1.2043501811e+00
1.2043466122e+00
1.2043430775e+00
1.2043395857e+00
1.2043361465e+00
1.2043327679e+00
1.2043294585e+00
1.2043262252e+00
1.2043230757e+00
1.2043200157e+00
1.2043170517e+00
1.2043141885e+00
1.2043114313e+00
1.2043087837e+00
1.2043062499e+00
1.2043038325e+00
1.2043015348e+00
1.2042993589e+00
1.2042973073e+00
1.2042953820e+00
1.2042935855e+00
1.2042919204e+00
1.2042903901e+00
1.2042889985e+00
1.2042877513e+00
1.2042866557e+00
1.2042857214e+00
1.2042849613e+00
1.2042843919e+00
1.2042840334e+00
1.2042839072e+00
1.2042840293e+00
1.2042843897e+00
1.2042734529e+00
1.1997429109e+00
1.1997416305e+00
1.1997968545e+00
1.1998748869e+00
1.1999745128e+00
1.2000942757e+00
1.2002324654e+00
1.2003871477e+00
1.2005561954e+00
1.2007373437e+00
1.2009282339e+00
1.2011264740e+00
1.2013296812e+00
1.2015355380e+00
1.2017418276e+00
1.2019464792e+00
1.2021475914e+00
1.2023434649e+00
1.2025326120e+00
1.2027137758e+00
1.2028859261e+00
1.2030482658e+00
1.2032002161e+00
1.2033414118e+00
1.2034716794e+00
1.2035910243e+00
1.2036996046e+00
1.2037977149e+00
1.2038857583e+00
1.2039642298e+00
1.2040336897e+00
1.2040947485e+00
1.2041480440e+00
1.2041942291e+00
1.2042339537e+00
1.2042678564e+00
1.2042965510e+00
1.2043206220e+00
1.2043406160e+00
1.2043570409e+00
1.2043703602e+00
1.2043809956e+00
1.2043893239e+00
1.2043956816e+00
1.2044003636e+00
1.2044036290e+00
1.2044057007e+00
1.2044067719e+00
1.2044070060e+00
1.2044065429e+00
1.2044054991e+00
1.2044039735e+00
1.2044020473e+00
1.2043997893e+00
1.2043972553e+00
1.2043944927e+00
1.2043915399e+00
1.2043884299e+00
1.2043851894e+00
1.2043818422e+00
1.2043784077e+00
1.2043749039e+00
1.2043713456e+00
1.2043677476e+00
1.2043641221e+00
1.2043604818e+00
1.2043568375e+00
1.2043532005e+00
1.2043495807e+00
1.2043459888e+00
1.2043424338e+00
1.2043389255e+00
1.2043354724e+00
1.2043320834e+00
1.2043287661e+00
1.2043255286e+00
1.2043223775e+00
1.2043193199e+00
1.2043163614e+00
1.2043135079e+00
1.2043107640e+00
1.2043081347e+00
1.2043056236e+00
1.2043032348e+00
1.2043009715e+00
1.2042988371e+00
1.2042968343e+00
1.2042949667e+00
1.2042932374e+00
1.2042916502e+00
1.2042902092e+00
1.2042889196e+00
1.2042877869e+00
1.2042868175e+00
1.2042860173e+00
1.2042853901e+00
1.2042849324e+00
1.2042846239e+00
1.2042844081e+00
1.2042724306e+00
1.1998264349e+00
1.1998211856e+00
1.1998748869e+00
1.1999511327e+00
1.2000487151e+00
1.2001661695e+00
1.2003017924e+00
1.2004536594e+00
1.2006196718e+00
1.2007975925e+00
1.2009851052e+00
1.2011798542e+00
1.2013795042e+00
1.2015817757e+00
1.2017844974e+00
1.2019856326e+00
1.2021833197e+00
1.2023758861e+00
1.2025618753e+00
1.2027400480e+00
1.2029093953e+00
1.2030691286e+00
1.2032186809e+00
1.2033576871e+00
1.2034859770e+00
1.2036035496e+00
1.2037105598e+00
1.2038072911e+00
1.2038941390e+00
1.2039715846e+00
1.2040401783e+00
1.2041005155e+00
1.2041532233e+00
1.2041989398e+00
1.2042383044e+00
1.2042719419e+00
1.2043004565e+00
1.2043244208e+00
1.2043443730e+00
1.2043608104e+00
1.2043741900e+00
1.2043849244e+00
1.2043933852e+00
1.2043999014e+00
1.2044047638e+00
1.2044082252e+00
1.2044105057e+00
1.2044117930e+00
1.2044122485e+00
1.2044120075e+00
1.2044111850e+00
1.2044098761e+00
1.2044081610e+00
1.2044061050e+00
1.2044037635e+00
1.2044011809e+00
1.2043983952e+00
1.2043954370e+00
1.2043923329e+00
1.2043891043e+00
1.2043857711e+00
1.2043823491e+00
1.2043788540e+00
1.2043752985e+00
1.2043716959e+00
1.2043680573e+00
1.2043643948e+00
1.2043607186e+00
1.2043570400e+00
1.2043533688e+00
1.2043497159e+00
1.2043460905e+00
1.2043425031e+00
1.2043389626e+00
1.2043354786e+00
1.2043320594e+00
1.2043287140e+00
1.2043254498e+00
1.2043222749e+00
1.2043191959e+00
1.2043162197e+00
1.2043133520e+00
1.2043105988e+00
1.2043079650e+00
1.2043054555e+00
1.2043030744e+00
1.2043008260e+00
1.2042987140e+00
1.2042967420e+00
1.2042949134e+00
1.2042932317e+00
1.2042916995e+00
1.2042903196e+00
1.2042890929e+00
1.2042880182e+00
1.2042870889e+00
1.2042862890e+00
1.2042855852e+00
1.2042849151e+00
1.2042723415e+00
1.1999313483e+00
1.1999223998e+00
1.1999745128e+00
1.2000487151e+00
1.2001438338e+00
1.2002584348e+00
1.2003908370e+00
1.2005391528e+00
1.2007013176e+00
1.2008751447e+00
1.2010583619e+00
1.2012486718e+00
1.2014437869e+00
1.2016414865e+00
1.2018396453e+00
1.2020362801e+00
1.2022295682e+00
1.2024178814e+00
1.2025997922e+00
1.2027740943e+00
1.2029397966e+00
1.2030961313e+00
1.2032425385e+00
1.2033786630e+00
1.2035043319e+00
1.2036195449e+00
1.2037244471e+00
1.2038193157e+00
1.2039045316e+00
1.2039805650e+00
1.2040479492e+00
1.2041072664e+00
1.2041591258e+00
1.2042041518e+00
1.2042429664e+00
1.2042761815e+00
1.2043043853e+00
1.2043281386e+00
1.2043479659e+00
1.2043643545e+00
1.2043777493e+00
1.2043885549e+00
1.2043971328e+00
1.2044038055e+00
1.2044088556e+00
1.2044125310e+00
1.2044150446e+00
1.2044165806e+00
1.2044172944e+00
1.2044173187e+00
1.2044167636e+00
1.2044157220e+00
1.2044142701e+00
1.2044124718e+00
1.2044103786e+00
1.2044080342e+00
1.2044054731e+00
1.2044027255e+00
1.2043998150e+00
1.2043967630e+00
1.2043935865e+00
1.2043903016e+00
1.2043869216e+00
1.2043834599e+00
1.2043799276e+00
1.2043763368e+00
1.2043726977e+00
1.2043690219e+00
1.2043653193e+00
1.2043616012e+00
1.2043578776e+00
1.2043541597e+00
1.2043504572e+00
1.2043467812e+00
1.2043431412e+00
1.2043395479e+00
1.2043360103e+00
1.2043325386e+00
1.2043291413e+00
1.2043258275e+00
1.2043226049e+00
1.2043194819e+00
1.2043164652e+00
1.2043135621e+00
1.2043107784e+00
1.2043081202e+00
1.2043055924e+00
1.2043032001e+00
1.2043009470e+00
1.2042988371e+00
1.2042968728e+00
1.2042950561e+00
1.2042933871e+00
1.2042918639e+00
1.2042904809e+00
1.2042892267e+00
1.2042880808e+00
1.2042870089e+00
1.2042859570e+00
1.2042730996e+00
1.2000563897e+00
1.2000438735e+00
1.2000942757e+00
1.2001661695e+00
1.2002584348e+00
1.2003696754e+00
1.2004982577e+00
1.2006423359e+00
1.2007999032e+00
1.2009688241e+00
1.2011468937e+00
1.2013318718e+00
1.2015215413e+00
1.2017137389e+00
1.2019064062e+00
1.2020976115e+00
1.2022855905e+00
1.2024687563e+00
1.2026457276e+00
1.2028153268e+00
1.2029765952e+00
1.2031287809e+00
1.2032713422e+00
1.2034039278e+00
1.2035263713e+00
1.2036386659e+00
1.2037409535e+00
1.2038334977e+00
1.2039166693e+00
1.2039909203e+00
1.2040567694e+00
1.2041147788e+00
1.2041655413e+00
1.2042096607e+00
1.2042477429e+00
1.2042803802e+00
1.2043081458e+00
1.2043315830e+00
1.2043512030e+00
1.2043674779e+00
1.2043808415e+00
1.2043916855e+00
1.2044003625e+00
1.2044071841e+00
1.2044124260e+00
1.2044163270e+00
1.2044190948e+00
1.2044209061e+00
1.2044219123e+00
1.2044222400e+00
1.2044219960e+00
1.2044212684e+00
1.2044201309e+00
1.2044186428e+00
1.2044168542e+00
1.2044148046e+00
1.2044125277e+00
1.2044100497e+00
1.2044073939e+00
1.2044045781e+00
1.2044016192e+00
1.2043985305e+00
1.2043953251e+00
1.2043920137e+00
1.2043886081e+00
1.2043851180e+00
1.2043815544e+00
1.2043779270e+00
1.2043742469e+00
1.2043705239e+00
1.2043667695e+00
1.2043629937e+00
1.2043592085e+00
1.2043554240e+00
1.2043516521e+00
1.2043479033e+00
1.2043441891e+00
1.2043405198e+00
1.2043369067e+00
1.2043333593e+00
1.2043298883e+00
1.2043265027e+00
1.2043232120e+00
1.2043200242e+00
1.2043169480e+00
1.2043139900e+00
1.2043111575e+00
1.2043084559e+00
1.2043058908e+00
1.2043034658e+00
1.2043011842e+00
1.2042990471e+00
1.2042970541e+00
1.2042952017e+00
1.2042934828e+00
1.2042918846e+00
1.2042903869e+00
1.2042889596e+00
1.2042875605e+00
1.2042746500e+00
1.2001999468e+00
1.2001839296e+00
1.2002324654e+00
1.2003017924e+00
1.2003908370e+00
1.2004982577e+00
1.2006224692e+00
1.2007616894e+00
1.2009139686e+00
1.2010772458e+00
1.2012493809e+00
1.2014282141e+00
1.2016115957e+00
1.2017974417e+00
1.2019837574e+00
1.2021686832e+00
1.2023505089e+00
1.2025277079e+00
1.2026989399e+00
1.2028630725e+00
1.2030191733e+00
1.2031665198e+00
1.2033045822e+00
1.2034330236e+00
1.2035516769e+00
1.2036605371e+00
1.2037597355e+00
1.2038495276e+00
1.2039302667e+00
1.2040023906e+00
1.2040663963e+00
1.2041228283e+00
1.2041722562e+00
1.2042152650e+00
1.2042524379e+00
1.2042843489e+00
1.2043115502e+00
1.2043345688e+00
1.2043538970e+00
1.2043699929e+00
1.2043832744e+00
1.2043941214e+00
1.2044028731e+00
1.2044098319e+00
1.2044152623e+00
1.2044193958e+00
1.2044224313e+00
1.2044245397e+00
1.2044258650e+00
1.2044265295e+00
1.2044266340e+00
1.2044262632e+00
1.2044254856e+00
1.2044243581e+00
1.2044229262e+00
1.2044212275e+00
1.2044192916e+00
1.2044171435e+00
1.2044148026e+00
1.2044122860e+00
1.2044096069e+00
1.2044067782e+00
1.2044038099e+00
1.2044007127e+00
1.2043974953e+00
1.2043941678e+00
1.2043907387e+00
1.2043872184e+00
1.2043836158e+00
1.2043799419e+00
1.2043762064e+00
1.2043724211e+00
1.2043685964e+00
1.2043647445e+00
1.2043608766e+00
1.2043570054e+00
1.2043531421e+00
1.2043492996e+00
1.2043454893e+00
1.2043417238e+00
1.2043380139e+00
1.2043343716e+00
1.2043308073e+00
1.2043273320e+00
1.2043239549e+00
1.2043206856e+00
1.2043175321e+00
1.2043145023e+00
1.2043116020e+00
1.2043088370e+00
1.2043062104e+00
1.2043037247e+00
1.2043013790e+00
1.2042991705e+00
1.2042970918e+00
1.2042951315e+00
1.2042932720e+00
1.2042914892e+00
1.2042897515e+00
1.2042769737e+00
1.2003601111e+00
1.2003406375e+00
1.2003871477e+00
1.2004536594e+00
1.2005391528e+00
1.2006423359e+00
1.2007616894e+00
1.2008954916e+00
1.2010418715e+00
1.2011988386e+00
1.2013643404e+00
1.2015362928e+00
1.2017126361e+00
1.2018913605e+00
1.2020705566e+00
1.2022484312e+00
1.2024233486e+00
1.2025938358e+00
1.2027586116e+00
1.2029165820e+00
1.2030668563e+00
1.2032087338e+00
1.2033417093e+00
1.2034654528e+00
1.2035798059e+00
1.2036847581e+00
1.2037804368e+00
1.2038670824e+00
1.2039450356e+00
1.2040147125e+00
1.2040765921e+00
1.2041311942e+00
1.2041790676e+00
1.2042207722e+00
1.2042568700e+00
1.2042879110e+00
1.2043144278e+00
1.2043369253e+00
1.2043558787e+00
1.2043717271e+00
1.2043848736e+00
1.2043956821e+00
1.2044044800e+00
1.2044115565e+00
1.2044171665e+00
1.2044215310e+00
1.2044248412e+00
1.2044272595e+00
1.2044289242e+00
1.2044299504e+00
1.2044304346e+00
1.2044304555e+00
1.2044300783e+00
1.2044293548e+00
1.2044283279e+00
1.2044270306e+00
1.2044254907e+00
1.2044237289e+00
1.2044217630e+00
1.2044196065e+00
1.2044172715e+00
1.2044147671e+00
1.2044121027e+00
1.2044092856e+00
1.2044063244e+00
1.2044032258e+00
1.2043999988e+00
1.2043966507e+00
1.2043931911e+00
1.2043896288e+00
1.2043859743e+00
1.2043822374e+00
1.2043784301e+00
1.2043745632e+00
1.2043706497e+00
1.2043667013e+00
1.2043627317e+00
1.2043587532e+00
1.2043547798e+00
1.2043508242e+00
1.2043469001e+00
1.2043430199e+00
1.2043391970e+00
1.2043354430e+00
1.2043317704e+00
1.2043281894e+00
1.2043247110e+00
1.2043213439e+00
1.2043180966e+00
1.2043149753e+00
1.2043119857e+00
1.2043091305e+00
1.2043064108e+00
1.2043038244e+00
1.2043013662e+00
1.2042990266e+00
1.2042967922e+00
1.2042946444e+00
1.2042925610e+00
1.2042800819e+00
1.2005347377e+00
1.2005118644e+00
1.2005561954e+00
1.2006196718e+00
1.2007013176e+00
1.2007999032e+00
1.2009139686e+00
1.2010418715e+00
1.2011818137e+00
1.2013318964e+00
1.2014901486e+00
1.2016545839e+00
1.2018232259e+00
1.2019941611e+00
1.2021655578e+00
1.2023357106e+00
1.2025030500e+00
1.2026661763e+00
1.2028238592e+00
1.2029750596e+00
1.2031189206e+00
1.2032547774e+00
1.2033821412e+00
1.2035006998e+00
1.2036102961e+00
1.2037109219e+00
1.2038026938e+00
1.2038858428e+00
1.2039606898e+00
1.2040276338e+00
1.2040871289e+00
1.2041396732e+00
1.2041857887e+00
1.2042260119e+00
1.2042608783e+00
1.2042909153e+00
1.2043166307e+00
1.2043385090e+00
1.2043570036e+00
1.2043725357e+00
1.2043854898e+00
1.2043962152e+00
1.2044050238e+00
1.2044121928e+00
1.2044179648e+00
1.2044225513e+00
1.2044261335e+00
1.2044288666e+00
1.2044308806e+00
1.2044322853e+00
1.2044331704e+00
1.2044336104e+00
1.2044336646e+00
1.2044333819e+00
1.2044328000e+00
1.2044319495e+00
1.2044308534e+00
1.2044295307e+00
1.2044279950e+00
1.2044262580e+00
1.2044243279e+00
1.2044222127e+00
1.2044199179e+00
1.2044174500e+00
1.2044148139e+00
1.2044120161e+00
1.2044090620e+00
1.2044059590e+00
1.2044027137e+00
1.2043993350e+00
1.2043958311e+00
1.2043922126e+00
1.2043884892e+00
1.2043846730e+00
1.2043807754e+00
1.2043768098e+00
1.2043727888e+00
1.2043687270e+00
1.2043646377e+00
1.2043605360e+00
1.2043564357e+00
1.2043523522e+00
1.2043482990e+00
1.2043442908e+00
1.2043403407e+00
1.2043364622e+00
1.2043326671e+00
1.2043289670e+00
1.2043253715e+00
1.2043218899e+00
1.2043185285e+00
1.2043152929e+00
1.2043121854e+00
1.2043092066e+00
1.2043063532e+00
1.2043036195e+00
1.2043009955e+00
1.2042984689e+00
1.2042960241e+00
1.2042840072e+00
1.2007215150e+00
1.2006953221e+00
1.2007373437e+00
1.2007975925e+00
1.2008751447e+00
1.2009688241e+00
1.2010772458e+00
1.2011988386e+00
1.2013318964e+00
1.2014746043e+00
1.2016250936e+00
1.2017814674e+00
1.2019418540e+00
1.2021044273e+00
1.2022674548e+00
1.2024293092e+00
1.2025885074e+00
1.2027437136e+00
1.2028937661e+00
1.2030376718e+00
1.2031746225e+00
1.2033039808e+00
1.2034252864e+00
1.2035382369e+00
1.2036426859e+00
1.2037386200e+00
1.2038261520e+00
1.2039054964e+00
1.2039769596e+00
1.2040409169e+00
1.2040978012e+00
1.2041480828e+00
1.2041922595e+00
1.2042308391e+00
1.2042643325e+00
1.2042932395e+00
1.2043180449e+00
1.2043392084e+00
1.2043571628e+00
1.2043723078e+00
1.2043850107e+00
1.2043956027e+00
1.2044043816e+00
1.2044116100e+00
1.2044175192e+00
1.2044223090e+00
1.2044261519e+00
1.2044291937e+00
1.2044315578e+00
1.2044333464e+00
1.2044346440e+00
1.2044355190e+00
1.2044360268e+00
1.2044362108e+00
1.2044361057e+00
1.2044357373e+00
1.2044351263e+00
1.2044342870e+00
1.2044332312e+00
1.2044319662e+00
1.2044304988e+00
1.2044288327e+00
1.2044269721e+00
1.2044249198e+00
1.2044226793e+00
1.2044202535e+00
1.2044176471e+00
1.2044148640e+00
1.2044119104e+00
1.2044087921e+00
1.2044055172e+00
1.2044020935e+00
1.2043985313e+00
1.2043948403e+00
1.2043910329e+00
1.2043871207e+00
1.2043831177e+00
1.2043790371e+00
1.2043748944e+00
1.2043707038e+00
1.2043664817e+00
1.2043622429e+00
1.2043580039e+00
1.2043537797e+00
1.2043495864e+00
1.2043454380e+00
1.2043413496e+00
1.2043373337e+00
1.2043334032e+00
1.2043295683e+00
1.2043258390e+00
1.2043222220e+00
1.2043187231e+00
1.2043153447e+00
1.2043120875e+00
1.2043089485e+00
1.2043059227e+00
1.2043030022e+00
1.2043001780e+00
1.2042887943e+00
1.2009180245e+00
1.2008886295e+00
1.2009282339e+00
1.2009851052e+00
1.2010583619e+00
1.2011468937e+00
1.2012493809e+00
1.2013643404e+00
1.2014901486e+00
1.2016250936e+00
1.2017673992e+00
1.2019152785e+00
1.2020669541e+00
1.2022207081e+00
1.2023748961e+00
1.2025279894e+00
1.2026785806e+00
1.2028254157e+00
1.2029673918e+00
1.2031035778e+00
1.2032332043e+00
1.2033556749e+00
1.2034705488e+00
1.2035775445e+00
1.2036765177e+00
1.2037674587e+00
1.2038504686e+00
1.2039257520e+00
1.2039935941e+00
1.2040543508e+00
1.2041084279e+00
1.2041562715e+00
1.2041983495e+00
1.2042351439e+00
1.2042671357e+00
1.2042947997e+00
1.2043185931e+00
1.2043389524e+00
1.2043562864e+00
1.2043709749e+00
1.2043833645e+00
1.2043937701e+00
1.2044024725e+00
1.2044097211e+00
1.2044157339e+00
1.2044207002e+00
1.2044247818e+00
1.2044281166e+00
1.2044308197e+00
1.2044329871e+00
1.2044346965e+00
1.2044360117e+00
1.2044369825e+00
1.2044376487e+00
1.2044380400e+00
1.2044381794e+00
1.2044380831e+00
1.2044377630e+00
1.2044372266e+00
1.2044364793e+00
1.2044355236e+00
1.2044343615e+00
1.2044329932e+00
1.2044314196e+00
1.2044296407e+00
1.2044276577e+00
1.2044254716e+00
1.2044230852e+00
1.2044205011e+00
1.2044177243e+00
1.2044147596e+00
1.2044116144e+00
1.2044082959e+00
1.2044048142e+00
1.2044011788e+00
1.2043974021e+00
1.2043934960e+00
1.2043894750e+00
1.2043853528e+00
1.2043811455e+00
1.2043768683e+00
1.2043725385e+00
1.2043681720e+00
1.2043637866e+00
1.2043593981e+00
1.2043550240e+00
1.2043506796e+00
1.2043463809e+00
1.2043421417e+00
1.2043379758e+00
1.2043338943e+00
1.2043299080e+00
1.2043260242e+00
1.2043222496e+00
1.2043185873e+00
1.2043150390e+00
1.2043116033e+00
1.2043082776e+00
1.2043050573e+00
1.2042944928e+00
1.2011218056e+00
1.2010893605e+00
1.2011264740e+00
1.2011798542e+00
1.2012486718e+00
1.2013318718e+00
1.2014282141e+00
1.2015362928e+00
1.2016545839e+00
1.2017814674e+00
1.2019152785e+00
1.2020543283e+00
1.2021969538e+00
1.2023415329e+00
1.2024865293e+00
1.2026305003e+00
1.2027721329e+00
1.2029102435e+00
1.2030438043e+00
1.2031719355e+00
1.2032939212e+00
1.2034091956e+00
1.2035173499e+00
1.2036181139e+00
1.2037113558e+00
1.2037970608e+00
1.2038753265e+00
1.2039463401e+00
1.2040103712e+00
1.2040677505e+00
1.2041188608e+00
1.2041641183e+00
1.2042039645e+00
1.2042388506e+00
1.2042692307e+00
1.2042955499e+00
1.2043182400e+00
1.2043377112e+00
1.2043543496e+00
1.2043685122e+00
1.2043805267e+00
1.2043906889e+00
1.2043992643e+00
1.2044064871e+00
1.2044125630e+00
1.2044176694e+00
1.2044219588e+00
1.2044255597e+00
1.2044285801e+00
1.2044311086e+00
1.2044332177e+00
1.2044349650e+00
1.2044363964e+00
1.2044375466e+00
1.2044384421e+00
1.2044391016e+00
1.2044395384e+00
1.2044397604e+00
1.2044397727e+00
1.2044395768e+00
1.2044391730e+00
1.2044385593e+00
1.2044377339e+00
1.2044366939e+00
1.2044354372e+00
1.2044339613e+00
1.2044322653e+00
1.2044303482e+00
1.2044282111e+00
1.2044258552e+00
1.2044232843e+00
1.2044205021e+00