# vtk DataFile Version 2.0
Blank
ASCII
DATASET STRUCTURED_GRID
DIMENSIONS 101 101 2
POINTS 20402 float
0.0000000000e+00 0.0000000000e+00 0.0000000000e+00
1.0000000000e-02 0.0000000000e+00 0.0000000000e+00
2.0000000000e-02 0.0000000000e+00 0.0000000000e+00
3.0000000000e-02 0.0000000000e+00 0.0000000000e+00
4.0000000000e-02 0.0000000000e+00 0.0000000000e+00
5.0000000000e-02 0.0000000000e+00 0.0000000000e+00
6.0000000000e-02 0.0000000000e+00 0.0000000000e+00
7.0000000000e-02 0.0000000000e+00 0.0000000000e+00
8.0000000000e-02 0.0000000000e+00 0.0000000000e+00
9.0000000000e-02 0.0000000000e+00 0.0000000000e+00
1.0000000000e-01 0.0000000000e+00 0.0000000000e+00
1.1000000000e-01 0.0000000000e+00 0.0000000000e+00
1.2000000000e-01 0.0000000000e+00 0.0000000000e+00
1.3000000000e-01 0.0000000000e+00 0.0000000000e+00
1.4000000000e-01 0.0000000000e+00 0.0000000000e+00
1.5000000000e-01 0.0000000000e+00 0.0000000000e+00
1.6000000000e-01 0.0000000000e+00 0.0000000000e+00
1.7000000000e-01 0.0000000000e+00 0.0000000000e+00
1.8000000000e-01 0.0000000000e+00 0.0000000000e+00
1.9000000000e-01 0.0000000000e+00 0.0000000000e+00
2.0000000000e-01 0.0000000000e+00 0.0000000000e+00
2.1000000000e-01 0.0000000000e+00 0.0000000000e+00
2.2000000000e-01 0.0000000000e+00 0.0000000000e+00
2.3000000000e-01 0.0000000000e+00 0.0000000000e+00
2.4000000000e-01 0.0000000000e+00 0.0000000000e+00
2.5000000000e-01 0.0000000000e+00 0.0000000000e+00
2.6000000000e-01 0.0000000000e+00 0.0000000000e+00
2.7000000000e-01 0.0000000000e+00 0.0000000000e+00
2.8000000000e-01 0.0000000000e+00 0.0000000000e+00
2.9000000000e-01 0.0000000000e+00 0.0000000000e+00
3.0000000000e-01 0.0000000000e+00 0.0000000000e+00
3.1000000000e-01 0.0000000000e+00 0.0000000000e+00
3.2000000000e-01 0.0000000000e+00 0.0000000000e+00
3.3000000000e-01 0.0000000000e+00 0.0000000000e+00
3.4000000000e-01 0.0000000000e+00 0.0000000000e+00
3.5000000000e-01 0.0000000000e+00 0.0000000000e+00
3.6000000000e-01 0.0000000000e+00 0.0000000000e+00
3.7000000000e-01 0.0000000000e+00 0.0000000000e+00
3.8000000000e-01 0.0000000000e+00 0.0000000000e+00
3.9000000000e-01 0.0000000000e+00 0.0000000000e+00
4.0000000000e-01 0.0000000000e+00 0.0000000000e+00
4.1000000000e-01 0.0000000000e+00 0.0000000000e+00
4.2000000000e-01 0.0000000000e+00 0.0000000000e+00
4.3000000000e-01 0.0000000000e+00 0.0000000000e+00
4.4000000000e-01 0.0000000000e+00 0.0000000000e+00
4.5000000000e-01 0.0000000000e+00 0.0000000000e+00
4.6000000000e-01 0.0000000000e+00 0.0000000000e+00
4.7000000000e-01 0.0000000000e+00 0.0000000000e+00
4.8000000000e-01 0.0000000000e+00 0.0000000000e+00
4.9000000000e-01 0.0000000000e+00 0.0000000000e+00
5.0000000000e-01 0.0000000000e+00 0.0000000000e+00
5.1000000000e-01 0.0000000000e+00 0.0000000000e+00
5.2000000000e-01 0.0000000000e+00 0.0000000000e+00
5.3000000000e-01 0.0000000000e+00 0.0000000000e+00
5.4000000000e-01 0.0000000000e+00 0.0000000000e+00
5.5000000000e-01 0.0000000000e+00 0.0000000000e+00
5.6000000000e-01 0.0000000000e+00 0.0000000000e+00
5.7000000000e-01 0.0000000000e+00 0.0000000000e+00
5.8000000000e-01 0.0000000000e+00 0.0000000000e+00
5.9000000000e-01 0.0000000000e+00 0.0000000000e+00
6.0000000000e-01 0.0000000000e+00 0.0000000000e+00
6.1000000000e-01 0.0000000000e+00 0.0000000000e+00
6.2000000000e-01 0.0000000000e+00 0.0000000000e+00
6.3000000000e-01 0.0000000000e+00 0.0000000000e+00
6.4000000000e-01 0.0000000000e+00 0.0000000000e+00
6.5000000000e-01 0.0000000000e+00 0.0000000000e+00
6.6000000000e-01 0.0000000000e+00 0.0000000000e+00
6.7000000000e-01 0.0000000000e+00 0.0000000000e+00
6.8000000000e-01 0.0000000000e+00 0.0000000000e+00
6.9000000000e-01 0.0000000000e+00 0.0000000000e+00
7.0000000000e-01 0.0000000000e+00 0.0000000000e+00
7.1000000000e-01 0.0000000000e+00 0.0000000000e+00
7.2000000000e-01 0.0000000000e+00 0.0000000000e+00
7.3000000000e-01 0.0000000000e+00 0.0000000000e+00
7.4000000000e-01 0.0000000000e+00 0.0000000000e+00
7.5000000000e-01 0.0000000000e+00 0.0000000000e+00
7.6000000000e-01 0.0000000000e+00 0.0000000000e+00
7.7000000000e-01 0.0000000000e+00 0.0000000000e+00
7.8000000000e-01 0.0000000000e+00 0.0000000000e+00
7.9000000000e-01 0.0000000000e+00 0.0000000000e+00
8.0000000000e-01 0.0000000000e+00 0.0000000000e+00
8.1000000000e-01 0.0000000000e+00 0.0000000000e+00
8.2000000000e-01 0.0000000000e+00 0.0000000000e+00
8.3000000000e-01 0.0000000000e+00 0.0000000000e+00
8.4000000000e-01 0.0000000000e+00 0.0000000000e+00
8.5000000000e-01 0.0000000000e+00 0.0000000000e+00
8.6000000000e-01 0.0000000000e+00 0.0000000000e+00
8.7000000000e-01 0.0000000000e+00 0.0000000000e+00
8.8000000000e-01 0.0000000000e+00 0.0000000000e+00
8.9000000000e-01 0.0000000000e+00 0.0000000000e+00
9.0000000000e-01 0.0000000000e+00 0.0000000000e+00
9.1000000000e-01 0.0000000000e+00 0.0000000000e+00
9.2000000000e-01 0.0000000000e+00 0.0000000000e+00
9.3000000000e-01 0.0000000000e+00 0.0000000000e+00
9.4000000000e-01 0.0000000000e+00 0.0000000000e+00
9.5000000000e-01 0.0000000000e+00 0.0000000000e+00
9.6000000000e-01 0.0000000000e+00 0.0000000000e+00
9.7000000000e-01 0.0000000000e+00 0.0000000000e+00
9.8000000000e-01 0.0000000000e+00 0.0000000000e+00
9.9000000000e-01 0.0000000000e+00 0.0000000000e+00
1.0000000000e+00 0.0000000000e+00 0.0000000000e+00
0.0000000000e+00 1.0000000000e-02 0.0000000000e+00
1.0000000000e-02 1.0000000000e-02 0.0000000000e+00
2.0000000000e-02 1.0000000000e-02 0.0000000000e+00
3.0000000000e-02 1.0000000000e-02 0.0000000000e+00
4.0000000000e-02 1.0000000000e-02 0.0000000000e+00
5.0000000000e-02 1.0000000000e-02 0.0000000000e+00
6.0000000000e-02 1.0000000000e-02 0.0000000000e+00
7.0000000000e-02 1.0000000000e-02 0.0000000000e+00
8.0000000000e-02 1.0000000000e-02 0.0000000000e+00
9.0000000000e-02 1.0000000000e-02 0.0000000000e+00
1.0000000000e-01 1.0000000000e-02 0.0000000000e+00
1.1000000000e-01 1.0000000000e-02 0.0000000000e+00
1.2000000000e-01 1.0000000000e-02 0.0000000000e+00
1.3000000000e-01 1.0000000000e-02 0.0000000000e+00
1.4000000000e-01 1.0000000000e-02 0.0000000000e+00
1.5000000000e-01 1.0000000000e-02 0.0000000000e+00
1.6000000000e-01 1.0000000000e-02 0.0000000000e+00
1.7000000000e-01 1.0000000000e-02 0.0000000000e+00
1.8000000000e-01 1.0000000000e-02 0.0000000000e+00
1.9000000000e-01 1.0000000000e-02 0.0000000000e+00
2.0000000000e-01 1.0000000000e-02 0.0000000000e+00
2.1000000000e-01 1.0000000000e-02 0.0000000000e+00
2.2000000000e-01 1.0000000000e-02 0.0000000000e+00
2.3000000000e-01 1.0000000000e-02 0.0000000000e+00
2.4000000000e-01 1.0000000000e-02 0.0000000000e+00
2.5000000000e-01 1.0000000000e-02 0.0000000000e+00
2.6000000000e-01 1.0000000000e-02 0.0000000000e+00
2.7000000000e-01 1.0000000000e-02 0.0000000000e+00
2.8000000000e-01 1.0000000000e-02 0.0000000000e+00
2.9000000000e-01 1.0000000000e-02 0.0000000000e+00
3.0000000000e-01 1.0000000000e-02 0.0000000000e+00
3.1000000000e-01 1.0000000000e-02 0.0000000000e+00
3.2000000000e-01 1.0000000000e-02 0.0000000000e+00
3.3000000000e-01 1.0000000000e-02 0.0000000000e+00
3.4000000000e-01 1.0000000000e-02 0.0000000000e+00
3.5000000000e-01 1.0000000000e-02 0.0000000000e+00
3.6000000000e-01 1.0000000000e-02 0.0000000000e+00
3.7000000000e-01 1.0000000000e-02 0.0000000000e+00
3.8000000000e-01 1.0000000000e-02 0.0000000000e+00
3.9000000000e-01 1.0000000000e-02 0.0000000000e+00
4.0000000000e-01 1.0000000000e-02 0.0000000000e+00
4.1000000000e-01 1.0000000000e-02 0.0000000000e+00
4.2000000000e-01 1.0000000000e-02 0.0000000000e+00
4.3000000000e-01 1.0000000000e-02 0.0000000000e+00
4.4000000000e-01 1.0000000000e-02 0.0000000000e+00
4.5000000000e-01 1.0000000000e-02 0.0000000000e+00
4.6000000000e-01 1.0000000000e-02 0.0000000000e+00
4.7000000000e-01 1.0000000000e-02 0.0000000000e+00
4.8000000000e-01 1.0000000000e-02 0.0000000000e+00
4.9000000000e-01 1.0000000000e-02 0.0000000000e+00
5.0000000000e-01 1.0000000000e-02 0.0000000000e+00
5.1000000000e-01 1.0000000000e-02 0.0000000000e+00
5.2000000000e-01 1.0000000000e-02 0.0000000000e+00
5.3000000000e-01 1.0000000000e-02 0.0000000000e+00
5.4000000000e-01 1.0000000000e-02 0.0000000000e+00
5.5000000000e-01 1.0000000000e-02 0.0000000000e+00
5.6000000000e-01 1.0000000000e-02 0.0000000000e+00
5.7000000000e-01 1.0000000000e-02 0.0000000000e+00
5.8000000000e-01 1.0000000000e-02 0.0000000000e+00
5.9000000000e-01 1.0000000000e-02 0.0000000000e+00
6.0000000000e-01 1.0000000000e-02 0.0000000000e+00
6.1000000000e-01 1.0000000000e-02 0.0000000000e+00
6.2000000000e-01 1.0000000000e-02 0.0000000000e+00
6.3000000000e-01 1.0000000000e-02 0.0000000000e+00
6.4000000000e-01 1.0000000000e-02 0.0000000000e+00
6.5000000000e-01 1.0000000000e-02 0.0000000000e+00
6.6000000000e-01 1.0000000000e-02 0.0000000000e+00
6.7000000000e-01 1.0000000000e-02 0.0000000000e+00
6.8000000000e-01 1.0000000000e-02 0.0000000000e+00
6.9000000000e-01 1.0000000000e-02 0.0000000000e+00
7.0000000000e-01 1.0000000000e-02 0.0000000000e+00
7.1000000000e-01 1.0000000000e-02 0.0000000000e+00
7.2000000000e-01 1.0000000000e-02 0.0000000000e+00
7.3000000000e-01 1.0000000000e-02 0.0000000000e+00
7.4000000000e-01 1.0000000000e-02 0.0000000000e+00
7.5000000000e-01 1.0000000000e-02 0.0000000000e+00
7.6000000000e-01 1.0000000000e-02 0.0000000000e+00
7.7000000000e-01 1.0000000000e-02 0.0000000000e+00
7.8000000000e-01 1.0000000000e-02 0.0000000000e+00
7.9000000000e-01 1.0000000000e-02 0.0000000000e+00
8.0000000000e-01 1.0000000000e-02 0.0000000000e+00
8.1000000000e-01 1.0000000000e-02 0.0000000000e+00
8.2000000000e-01 1.0000000000e-02 0.0000000000e+00
8.3000000000e-01 1.0000000000e-02 0.0000000000e+00
8.4000000000e-01 1.0000000000e-02 0.0000000000e+00
8.5000000000e-01 1.0000000000e-02 0.0000000000e+00
8.6000000000e-01 1.0000000000e-02 0.0000000000e+00
8.7000000000e-01 1.0000000000e-02 0.0000000000e+00
8.8000000000e-01 1.0000000000e-02 0.0000000000e+00
8.9000000000e-01 1.0000000000e-02 0.0000000000e+00
9.0000000000e-01 1.0000000000e-02 0.0000000000e+00
9.1000000000e-01 1.0000000000e-02 0.0000000000e+00
9.2000000000e-01 1.0000000000e-02 0.0000000000e+00
[...]
CELL_DATA 10000

SCALARS massDensity float
LOOKUP_TABLE default
1.1992384899e+00
1.1992716838e+00
1.1993291895e+00
1.1994135679e+00
1.1995234856e+00
1.1996572359e+00
1.1998127839e+00
1.1999878096e+00
1.2001797655e+00
1.2003859294e+00
1.2006034700e+00
1.2008295030e+00
1.2010611574e+00
1.2012956272e+00
1.2015302309e+00
1.2017624531e+00
1.2019899914e+00
1.2022107832e+00
1.2024230362e+00
1.2026252387e+00
1.2028161728e+00
1.2029949089e+00
1.2031608026e+00
1.2033134758e+00
1.2034528013e+00
1.2035788740e+00
1.2036919878e+00
1.2037926022e+00
1.2038813153e+00
1.2039588307e+00
1.2040259314e+00
1.2040834493e+00
1.2041322441e+00
1.2041731782e+00
1.2042071010e+00
1.2042348311e+00
1.2042571466e+00
1.2042747739e+00
1.2042883839e+00
1.2042985861e+00
1.2043059297e+00
1.2043109017e+00
1.2043139312e+00
1.2043153903e+00
1.2043156001e+00
1.2043148330e+00
1.2043133194e+00
1.2043112504e+00
1.2043087846e+00
1.2043060504e+00
1.2043031518e+00
1.2043001710e+00
1.2042971730e+00
1.2042942069e+00
1.2042913108e+00
1.2042885115e+00
1.2042858290e+00
1.2042832758e+00
1.2042808602e+00
1.2042785859e+00
1.2042764542e+00
1.2042744634e+00
1.2042726108e+00
1.2042708919e+00
1.2042693018e+00
1.2042678346e+00
1.2042664844e+00
1.2042652448e+00
1.2042641096e+00
1.2042630722e+00
1.2042621266e+00
1.2042612664e+00
1.2042604857e+00
1.2042597785e+00
1.2042591390e+00
1.2042585618e+00
1.2042580414e+00
1.2042575728e+00
1.2042571511e+00
1.2042567718e+00
1.2042564309e+00
1.2042561250e+00
1.2042558513e+00
1.2042556081e+00
1.2042553946e+00
1.2042552117e+00
1.2042550620e+00
1.2042549503e+00
1.2042548839e+00
1.2042548737e+00
1.2042549346e+00
1.2042550873e+00
1.2042553597e+00
1.2042557900e+00
1.2042564309e+00
1.2042573549e+00
1.2042586615e+00
1.2042604819e+00
1.2042629711e+00
1.2042529691e+00
1.1992716838e+00
1.1993047358e+00
1.1993618812e+00
1.1994454179e+00
1.1995540838e+00
1.1996862252e+00
1.1998398418e+00
1.2000126470e+00
1.2002021179e+00
1.2004055632e+00
1.2006201773e+00
1.2008431119e+00
1.2010715275e+00
1.2013026614e+00
1.2015338707e+00
1.2017626896e+00
1.2019868595e+00
1.2022043697e+00
1.2024134728e+00
1.2026127070e+00
1.2028008946e+00
1.2029771482e+00
1.2031408537e+00
1.2032916628e+00
1.2034294649e+00
1.2035543692e+00
1.2036666709e+00
1.2037668277e+00
1.2038554244e+00
1.2039331489e+00
1.2040007588e+00
1.2040590603e+00
1.2041088801e+00
1.2041510491e+00
1.2041863809e+00
1.2042156617e+00
1.2042396349e+00
1.2042589972e+00
1.2042743890e+00
1.2042863952e+00
1.2042955405e+00
1.2043022934e+00
1.2043070653e+00
1.2043102157e+00
1.2043120539e+00
1.2043128454e+00
1.2043128137e+00
1.2043121474e+00
1.2043110019e+00
1.2043095060e+00
1.2043077637e+00
1.2043058595e+00
1.2043038597e+00
1.2043018174e+00
1.2042997727e+00
1.2042977571e+00
1.2042957931e+00
1.2042938980e+00
1.2042920828e+00
1.2042903557e+00
1.2042887208e+00
1.2042871808e+00
1.2042857355e+00
1.2042843842e+00
1.2042831247e+00
1.2042819543e+00
1.2042808696e+00
1.2042798672e+00
1.2042789429e+00
1.2042780928e+00
1.2042773129e+00
1.2042765989e+00
1.2042759468e+00
1.2042753525e+00
1.2042748121e+00
1.2042743216e+00
1.2042738774e+00
1.2042734756e+00
1.2042731131e+00
1.2042727865e+00
1.2042724931e+00
1.2042722304e+00
1.2042719965e+00
1.2042717900e+00
1.2042716106e+00
1.2042714586e+00
1.2042713357e+00
1.2042712447e+00
1.2042711904e+00
1.2042711794e+00
1.2042712207e+00
1.2042713261e+00
1.2042715113e+00
1.2042717958e+00
1.2042722042e+00
1.2042727655e+00
1.2042735111e+00
1.2042744657e+00
1.2042756245e+00
1.2042630793e+00
1.1993291895e+00
1.1993618812e+00
1.1994189427e+00
1.1995020572e+00
1.1996099928e+00
1.1997411199e+00
1.1998934680e+00
1.2000647710e+00
1.2002525342e+00
1.2004540854e+00
1.2006666474e+00
1.2008873908e+00
1.2011135054e+00
1.2013422476e+00
1.2015710045e+00
1.2017973297e+00
1.2020189941e+00
1.2022340067e+00
1.2024406477e+00
1.2026374735e+00
1.2028233317e+00
1.2029973499e+00
1.2031589352e+00
1.2033077500e+00
1.2034436991e+00
1.2035668972e+00
1.2036776484e+00
1.2037764101e+00
1.2038637695e+00
1.2039404086e+00
1.2040070819e+00
1.2040645850e+00
1.2041137374e+00
1.2041553565e+00
1.2041902461e+00
1.2042191776e+00
1.2042428841e+00
1.2042620476e+00
1.2042772989e+00
1.2042892099e+00
1.2042982972e+00
1.2043050187e+00
1.2043097792e+00
1.2043129303e+00
1.2043147772e+00
1.2043155792e+00
1.2043155577e+00
1.2043148972e+00
1.2043137522e+00
1.2043122492e+00
1.2043104921e+00
1.2043085641e+00
1.2043065324e+00
1.2043044492e+00
1.2043023561e+00
1.2043002841e+00
1.2042982573e+00
1.2042962927e+00
1.2042944032e+00
1.2042925968e+00
1.2042908792e+00
1.2042892531e+00
1.2042877199e+00
1.2042862789e+00
1.2042849291e+00
1.2042836681e+00
1.2042824935e+00
1.2042814018e+00
1.2042803900e+00
1.2042794542e+00
1.2042785909e+00
1.2042777963e+00
1.2042770666e+00
1.2042763980e+00
1.2042757868e+00
1.2042752293e+00
1.2042747219e+00
1.2042742612e+00
1.2042738439e+00
1.2042734670e+00
1.2042731277e+00
1.2042728237e+00
1.2042725530e+00
1.2042723143e+00
1.2042721069e+00
1.2042719310e+00
1.2042717876e+00
1.2042716789e+00
1.2042716084e+00
1.2042715811e+00
1.2042716033e+00
1.2042716835e+00
1.2042718313e+00
1.2042720585e+00
1.2042723763e+00
1.2042727947e+00
1.2042733156e+00
1.2042739219e+00
1.2042745547e+00
1.2042607152e+00
1.1994135679e+00
1.1994454179e+00
1.1995020572e+00
1.1995843197e+00
1.1996909869e+00
1.1998204586e+00
1.1999707897e+00
1.2001397525e+00
1.2003248817e+00
1.2005235473e+00
1.2007330038e+00
1.2009504658e+00
1.2011731555e+00
1.2013983737e+00
1.2016235392e+00
1.2018462486e+00
1.2020643025e+00
1.2022757494e+00
1.2024788963e+00
1.2026723338e+00
1.2028549314e+00
1.2030258445e+00
1.2031844957e+00
1.2033305677e+00
1.2034639733e+00
1.2035848394e+00
1.2036934707e+00
1.2037903282e+00
1.2038759929e+00
1.2039511431e+00
1.2040165212e+00
1.2040729139e+00
1.2041211242e+00
1.2041619573e+00
1.2041961985e+00
1.2042246056e+00
1.2042478931e+00
1.2042667298e+00
1.2042817294e+00
1.2042934523e+00
1.2043024005e+00
1.2043090226e+00
1.2043137120e+00
1.2043168134e+00
1.2043186232e+00
1.2043193966e+00
1.2043193487e+00
1.2043186617e+00
1.2043174861e+00
1.2043159473e+00
1.2043141469e+00
1.2043121682e+00
1.2043100769e+00
1.2043079263e+00
1.2043057571e+00
1.2043036017e+00
1.2043014839e+00
1.2042994223e+00
1.2042974296e+00
1.2042955155e+00
1.2042936859e+00
1.2042919448e+00
1.2042902940e+00
1.2042887341e+00
1.2042872645e+00
1.2042858838e+00
1.2042845900e+00
1.2042833808e+00
1.2042822531e+00
1.2042812041e+00
1.2042802306e+00
1.2042793292e+00
1.2042784965e+00
1.2042777292e+00
1.2042770237e+00
1.2042763767e+00
1.2042757848e+00
1.2042752447e+00
1.2042747532e+00
1.2042743074e+00
1.2042739047e+00
1.2042735425e+00
1.2042732189e+00
1.2042729324e+00
1.2042726819e+00
1.2042724670e+00
1.2042722883e+00
1.2042721467e+00
1.2042720447e+00
1.2042719849e+00
1.2042719715e+00
1.2042720090e+00
1.2042721024e+00
1.2042722561e+00
1.2042724724e+00
1.2042727485e+00
1.2042730714e+00
1.2042734087e+00
1.2042736951e+00
1.2042590279e+00
1.1995234856e+00
1.1995540838e+00
1.1996099928e+00
1.1996909869e+00
1.1997958681e+00
1.1999230595e+00
1.2000706573e+00
1.2002364693e+00
1.2004180824e+00
1.2006129083e+00
1.2008182590e+00
1.2010313935e+00
1.2012495929e+00
1.2014702023e+00
1.2016906978e+00
1.2019087175e+00
1.2021221149e+00
1.2023289752e+00
1.2025276515e+00
1.2027167645e+00
1.2028952209e+00
1.2030621983e+00
1.2032171466e+00
1.2033597611e+00
1.2034899718e+00
1.2036079088e+00
1.2037138834e+00
1.2038083513e+00
1.2038918911e+00
1.2039651682e+00
1.2040289152e+00
1.2040839006e+00
1.2041309130e+00
1.2041707361e+00
1.2042041386e+00
1.2042318558e+00
1.2042545855e+00
1.2042729754e+00
1.2042876238e+00
1.2042990726e+00
1.2043078108e+00
1.2043142719e+00
1.2043188393e+00
1.2043218460e+00
1.2043235815e+00
1.2043242922e+00
1.2043241890e+00
1.2043234478e+00
1.2043222171e+00
1.2043206182e+00
1.2043187521e+00
1.2043166995e+00
1.2043145267e+00
1.2043122853e+00
1.2043100173e+00
1.2043077542e+00
1.2043055214e+00
1.2043033371e+00
1.2043012158e+00
1.2042991671e+00
1.2042971986e+00
1.2042953145e+00
1.2042935182e+00
1.2042918105e+00
1.2042901923e+00
1.2042886627e+00
1.2042872208e+00
1.2042858645e+00
1.2042845923e+00
1.2042834013e+00
1.2042822894e+00
1.2042812534e+00
1.2042802907e+00
1.2042793982e+00
1.2042785728e+00
1.2042778115e+00
1.2042771111e+00
1.2042764686e+00
1.2042758809e+00
1.2042753452e+00
1.2042748588e+00
1.2042744191e+00
1.2042740241e+00
1.2042736719e+00
1.2042733611e+00
1.2042730907e+00
1.2042728603e+00
1.2042726701e+00
1.2042725207e+00
1.2042724134e+00
1.2042723495e+00
1.2042723306e+00
1.2042723576e+00
1.2042724298e+00
1.2042725435e+00
1.2042726893e+00
1.2042728481e+00
1.2042729861e+00
1.2042730472e+00
1.2042578515e+00
1.1996572359e+00
1.1996862252e+00
1.1997411199e+00
1.1998204586e+00
1.1999230595e+00
1.2000473842e+00
1.2001915659e+00
1.2003534690e+00
1.2005307293e+00
1.2007208258e+00
1.2009211252e+00
1.2011289583e+00
1.2013416627e+00
1.2015566548e+00
1.2017714647e+00
1.2019837973e+00
1.2021915545e+00
1.2023928807e+00
1.2025861690e+00
1.2027700891e+00
1.2029435779e+00
1.2031058497e+00
1.2032563736e+00
1.2033948691e+00
1.2035212740e+00
1.2036357298e+00
1.2037385451e+00
1.2038301758e+00
1.2039111881e+00
1.2039822388e+00
1.2040440411e+00
1.2040973480e+00
1.2041429243e+00
1.2041815346e+00
1.2042139220e+00
1.2042408017e+00
1.2042628462e+00
1.2042806843e+00
1.2042948915e+00
1.2043059929e+00
1.2043144586e+00
1.2043207084e+00
1.2043251105e+00
1.2043279879e+00
1.2043296184e+00
1.2043302417e+00
1.2043300602e+00
1.2043292459e+00
1.2043279414e+00
1.2043262662e+00
1.2043243172e+00
1.2043221750e+00
1.2043199034e+00
1.2043175546e+00
1.2043151692e+00
1.2043127802e+00
1.2043104120e+00
1.2043080846e+00
1.2043058122e+00
1.2043036063e+00
1.2043014743e+00
1.2042994224e+00
1.2042974541e+00
1.2042955721e+00
1.2042937774e+00
1.2042920709e+00
1.2042904519e+00
1.2042889200e+00
1.2042874737e+00
1.2042861117e+00
1.2042848320e+00
1.2042836326e+00
1.2042825110e+00
1.2042814652e+00
1.2042804922e+00
1.2042795895e+00
1.2042787543e+00
1.2042779838e+00
1.2042772752e+00
1.2042766258e+00
1.2042760327e+00
1.2042754936e+00
1.2042750060e+00
1.2042745678e+00
1.2042741772e+00
1.2042738325e+00
1.2042735326e+00
1.2042732765e+00
1.2042730636e+00
1.2042728932e+00
1.2042727650e+00
1.2042726777e+00
1.2042726293e+00
1.2042726157e+00
1.2042726299e+00
1.2042726592e+00
1.2042726842e+00
1.2042726745e+00
1.2042725872e+00
1.2042570509e+00
1.1998127839e+00
1.1998398418e+00
1.1998934680e+00
1.1999707897e+00
1.2000706573e+00
1.2001915659e+00
1.2003317053e+00
1.2004889918e+00
1.2006611342e+00
1.2008456736e+00
1.2010400590e+00
1.2012416879e+00
1.2014479820e+00
1.2016564236e+00
1.2018646237e+00
1.2020703478e+00
1.2022715708e+00
1.2024664885e+00
1.2026535558e+00
1.2028314827e+00
1.2029992539e+00
1.2031561114e+00
1.2033015572e+00
1.2034353252e+00
1.2035573714e+00
1.2036678388e+00
1.2037670407e+00
1.2038554232e+00
1.2039335460e+00
1.2040020467e+00
1.2040616235e+00
1.2041130042e+00
1.2041569332e+00
1.2041941467e+00
1.2042253647e+00
1.2042512740e+00
1.2042725244e+00
1.2042897178e+00
1.2043034093e+00
1.2043141007e+00
1.2043222447e+00
1.2043282421e+00
1.2043324476e+00
1.2043351692e+00
1.2043366752e+00
1.2043371940e+00
1.2043369218e+00
1.2043360226e+00
1.2043346354e+00
1.2043328741e+00
1.2043308344e+00
1.2043285931e+00
1.2043262139e+00
1.2043237469e+00
1.2043212335e+00
1.2043187053e+00
1.2043161884e+00
1.2043137021e+00
1.2043112623e+00
1.2043088802e+00
1.2043065654e+00
1.2043043241e+00
1.2043021616e+00
1.2043000810e+00
1.2042980851e+00
1.2042961752e+00
1.2042943524e+00
1.2042926166e+00
1.2042909680e+00
1.2042894056e+00
1.2042879288e+00
1.2042865361e+00
1.2042852262e+00
1.2042839972e+00
1.2042828473e+00
1.2042817742e+00
1.2042807757e+00
1.2042798493e+00
1.2042789925e+00
1.2042782027e+00
1.2042774774e+00
1.2042768139e+00
1.2042762098e+00
1.2042756626e+00
1.2042751701e+00
1.2042747301e+00
1.2042743406e+00
1.2042739997e+00
1.2042737056e+00
1.2042734563e+00
1.2042732494e+00
1.2042730820e+00
1.2042729498e+00
1.2042728469e+00
1.2042727641e+00
1.2042726885e+00
1.2042726018e+00
1.2042724793e+00
1.2042722889e+00
1.2042565308e+00
1.1999878096e+00
1.2000126470e+00
1.2000647710e+00
1.2001397525e+00
1.2002364693e+00
1.2003534690e+00
1.2004889918e+00
1.2006410285e+00
1.2008073538e+00
1.2009855978e+00
1.2011732839e+00
1.2013679044e+00
1.2015669574e+00
1.2017680190e+00
1.2019687724e+00
1.2021670700e+00
1.2023609503e+00
1.2025486844e+00
1.2027287786e+00
1.2029000034e+00
1.2030613810e+00
1.2032121970e+00
1.2033519760e+00
1.2034804788e+00
1.2035976690e+00
1.2037037008e+00
1.2037988816e+00
1.2038836548e+00
1.2039585633e+00
1.2040242312e+00
1.2040813316e+00
1.2041305716e+00
1.2041726655e+00
1.2042083248e+00
1.2042382380e+00
1.2042630660e+00
1.2042834282e+00
1.2042999024e+00
1.2043130161e+00
1.2043232502e+00
1.2043310341e+00
1.2043367516e+00
1.2043407387e+00
1.2043432907e+00
1.2043446613e+00
1.2043450703e+00
1.2043447031e+00
1.2043437182e+00
1.2043422472e+00
1.2043404010e+00
1.2043382701e+00
1.2043359303e+00
1.2043334420e+00
1.2043308555e+00
1.2043282101e+00
1.2043255387e+00
1.2043228660e+00
1.2043202130e+00
1.2043175951e+00
1.2043150254e+00
1.2043125133e+00
1.2043100672e+00
1.2043076923e+00
1.2043053940e+00
1.2043031754e+00
1.2043010396e+00
1.2042989883e+00
1.2042970234e+00
1.2042951453e+00
1.2042933551e+00
1.2042916523e+00
1.2042900372e+00
1.2042885089e+00
1.2042870667e+00
1.2042857093e+00
1.2042844354e+00
1.2042832432e+00
1.2042821309e+00
1.2042810963e+00
1.2042801372e+00
1.2042792512e+00
1.2042784358e+00
1.2042776883e+00
1.2042770063e+00
1.2042763871e+00
1.2042758281e+00
1.2042753265e+00
1.2042748798e+00
1.2042744850e+00
1.2042741389e+00
1.2042738379e+00
1.2042735775e+00
1.2042733522e+00
1.2042731546e+00
1.2042729752e+00
1.2042728013e+00
1.2042726169e+00
1.2042724018e+00
1.2042721329e+00
1.2042562292e+00
1.2001797655e+00
1.2002021179e+00
1.2002525342e+00
1.2003248817e+00
1.2004180824e+00
1.2005307293e+00
1.2006611342e+00
1.2008073538e+00
1.2009672542e+00
1.2011385446e+00
1.2013188503e+00
1.2015057484e+00
1.2016968414e+00
1.2018897885e+00
1.2020823725e+00
1.2022725211e+00
1.2024583617e+00
1.2026382289e+00
1.2028107025e+00
1.2029746015e+00
1.2031290040e+00
1.2032732277e+00
1.2034068345e+00
1.2035296004e+00
1.2036415085e+00
1.2037427129e+00
1.2038335242e+00
1.2039143725e+00
1.2039857906e+00
1.2040483792e+00
1.2041027917e+00
1.2041497050e+00
1.2041898076e+00
1.2042237778e+00
1.2042522760e+00
1.2042759294e+00
1.2042953303e+00
1.2043110249e+00
1.2043235162e+00
1.2043332577e+00
1.2043406581e+00
1.2043460787e+00
1.2043498392e+00
1.2043522170e+00
1.2043534541e+00
1.2043537567e+00
1.2043533023e+00
1.2043522397e+00
1.2043506954e+00
1.2043487738e+00
1.2043465627e+00
1.2043441333e+00
1.2043415454e+00
1.2043388462e+00
1.2043360757e+00
1.2043332645e+00
1.2043304390e+00
1.2043276189e+00
1.2043248216e+00
1.2043220595e+00
1.2043193441e+00
1.2043166836e+00
1.2043140858e+00
1.2043115558e+00
1.2043090991e+00
1.2043067192e+00
1.2043044200e+00
1.2043022037e+00
1.2043000730e+00
1.2042980293e+00
1.2042960743e+00
1.2042942086e+00
1.2042924332e+00
1.2042907478e+00
1.2042891526e+00
1.2042876468e+00
1.2042862298e+00
1.2042849000e+00
1.2042836564e+00
1.2042824968e+00
1.2042814194e+00
1.2042804218e+00
1.2042795016e+00
1.2042786562e+00
1.2042778827e+00
1.2042771782e+00
1.2042765395e+00
1.2042759632e+00
1.2042754457e+00
1.2042749828e+00
1.2042745700e+00
1.2042742017e+00
1.2042738714e+00
1.2042735713e+00
1.2042732916e+00
1.2042730205e+00
1.2042727440e+00
1.2042724460e+00
1.2042721091e+00
1.2042561105e+00
1.2003859294e+00
1.2004055632e+00
1.2004540854e+00
1.2005235473e+00
1.2006129083e+00
1.2007208258e+00
1.2008456736e+00
1.2009855978e+00
1.2011385446e+00
1.2013023284e+00
1.2014746646e+00
1.2016532424e+00
1.2018357562e+00
1.2020199755e+00
1.2022037695e+00
1.2023851674e+00
1.2025623716e+00
1.2027338037e+00
1.2028981037e+00
1.2030541593e+00
1.2032010912e+00
1.2033382661e+00
1.2034652705e+00
1.2035819096e+00
1.2036881737e+00
1.2037842275e+00
1.2038703739e+00
1.2039470381e+00
1.2040147325e+00
1.2040740409e+00
1.2041255877e+00
1.2041700246e+00
1.2042080062e+00
1.2042401812e+00
1.2042671746e+00
1.2042895836e+00
1.2043079657e+00
1.2043228395e+00
1.2043346766e+00
1.2043439063e+00
1.2043509108e+00
1.2043560315e+00
1.2043595668e+00
1.2043617791e+00
1.2043628935e+00
1.2043631057e+00
1.2043625808e+00
1.2043614605e+00
1.2043598625e+00
1.2043578869e+00
1.2043556154e+00
1.2043531174e+00
1.2043504482e+00
1.2043476550e+00
1.2043447748e+00
1.2043418391e+00
1.2043388724e+00
1.2043358960e+00
1.2043329261e+00
1.2043299773e+00
1.2043270604e+00
1.2043241860e+00
1.2043213614e+00
1.2043185945e+00
1.2043158907e+00
1.2043132560e+00
1.2043106945e+00
1.2043082110e+00
1.2043058086e+00
1.2043034910e+00
1.2043012604e+00
1.2042991196e+00
1.2042970702e+00
1.2042951138e+00
1.2042932513e+00
1.2042914834e+00
1.2042898101e+00
1.2042882314e+00
1.2042867462e+00
1.2042853539e+00
1.2042840526e+00
1.2042828408e+00
1.2042817162e+00
1.2042806763e+00
1.2042797184e+00
1.2042788392e+00
1.2042780354e+00
1.2042773031e+00
1.2042766381e+00
1.2042760356e+00
1.2042754904e+00
1.2042749962e+00
1.2042745461e+00
1.2042741317e+00
1.2042737436e+00
1.2042733708e+00
1.2042730009e+00
1.2042726206e+00
1.2042722165e+00
1.2042561593e+00
1.2006034700e+00
1.2006201773e+00
1.2006666474e+00
1.2007330038e+00
1.2008182590e+00
1.2009211252e+00
1.2010400590e+00
1.2011732839e+00
1.2013188503e+00
1.2014746646e+00
1.2016385584e+00
1.2018083186e+00
1.2019817581e+00
1.2021567420e+00
1.2023312517e+00
1.2025034026e+00
1.2026714966e+00
1.2028340270e+00
1.2029897153e+00
1.2031375033e+00
1.2032765731e+00
1.2034063262e+00
1.2035263891e+00
1.2036365831e+00
1.2037369185e+00
1.2038275588e+00
1.2039088090e+00
1.2039810786e+00
1.2040448677e+00
1.2041007336e+00
1.2041492779e+00
1.2041911188e+00
1.2042268818e+00
1.2042571787e+00
1.2042826030e+00
1.2043037151e+00
1.2043210417e+00
1.2043350669e+00
1.2043462349e+00
1.2043549446e+00
1.2043615551e+00
1.2043663827e+00
1.2043697072e+00
1.2043717711e+00
1.2043727861e+00
1.2043729323e+00
1.2043723655e+00
1.2043712160e+00
1.2043695956e+00
1.2043675963e+00
1.2043652965e+00
1.2043627598e+00
1.2043600402e+00
1.2043571809e+00
1.2043542190e+00
1.2043511833e+00
1.2043480995e+00
1.2043449870e+00
1.2043418637e+00
1.2043387431e+00
1.2043356382e+00
1.2043325588e+00
1.2043295148e+00
1.2043265139e+00
1.2043235639e+00
1.2043206711e+00
1.2043178420e+00
1.2043150818e+00
1.2043123963e+00
1.2043097894e+00
1.2043072662e+00
1.2043048299e+00
1.2043024844e+00
1.2043002322e+00
1.2042980760e+00
1.2042960176e+00
1.2042940585e+00
1.2042921995e+00
1.2042904412e+00
1.2042887832e+00
1.2042872252e+00
1.2042857657e+00
1.2042844035e+00
1.2042831361e+00
1.2042819613e+00
1.2042808758e+00
1.2042798763e+00
1.2042789586e+00
1.2042781185e+00
1.2042773506e+00
1.2042766492e+00
1.2042760079e+00
1.2042754191e+00
1.2042748747e+00
1.2042743653e+00
1.2042738806e+00
1.2042734096e+00
1.2042729409e+00
1.2042724631e+00
1.2042563757e+00
1.2008295030e+00
1.2008431119e+00
1.2008873908e+00
1.2009504658e+00
1.2010313935e+00
1.2011289583e+00
1.2012416879e+00
1.2013679044e+00
1.2015057484e+00
1.2016532424e+00
1.2018083186e+00
1.2019688871e+00
1.2021328630e+00
1.2022982319e+00
1.2024630710e+00
1.2026256059e+00
1.2027842213e+00
1.2029375042e+00
1.2030842417e+00
1.2032234493e+00
1.2033543548e+00
1.2034764115e+00
1.2035892720e+00
1.2036927876e+00
1.2037869757e+00
1.2038720103e+00
1.2039481869e+00
1.2040159091e+00
1.2040756544e+00
1.2041279614e+00
1.2041733999e+00
1.2042125609e+00
1.2042460331e+00
1.2042743967e+00
1.2042982066e+00
1.2043179908e+00
1.2043342392e+00
1.2043474054e+00
1.2043579002e+00
1.2043660961e+00
1.2043723234e+00
1.2043768767e+00
1.2043800126e+00
1.2043819569e+00
1.2043829028e+00
1.2043830186e+00
1.2043824459e+00
1.2043813072e+00
1.2043797037e+00
1.2043777226e+00
1.2043754349e+00
1.2043729015e+00
1.2043701713e+00
1.2043672865e+00
1.2043642804e+00
1.2043611824e+00
1.2043580154e+00
1.2043548000e+00
1.2043515525e+00
1.2043482881e+00
1.2043450187e+00
1.2043417562e+00
1.2043385101e+00
1.2043352902e+00
1.2043321044e+00
1.2043289614e+00
1.2043258679e+00
1.2043228319e+00
1.2043198593e+00
1.2043169571e+00
1.2043141306e+00
1.2043113859e+00