# vtk DataFile Version 2.0
Blank
ASCII
DATASET STRUCTURED_GRID
DIMENSIONS 101 11 2
POINTS 2222 float
0.0000000000e+00 0.0000000000e+00 0.0000000000e+00
1.0000000000e-02 0.0000000000e+00 0.0000000000e+00
2.0000000000e-02 0.0000000000e+00 0.0000000000e+00
3.0000000000e-02 0.0000000000e+00 0.0000000000e+00
4.0000000000e-02 0.0000000000e+00 0.0000000000e+00
5.0000000000e-02 0.0000000000e+00 0.0000000000e+00
6.0000000000e-02 0.0000000000e+00 0.0000000000e+00
7.0000000000e-02 0.0000000000e+00 0.0000000000e+00
8.0000000000e-02 0.0000000000e+00 0.0000000000e+00
9.0000000000e-02 0.0000000000e+00 0.0000000000e+00
1.0000000000e-01 0.0000000000e+00 0.0000000000e+00
1.1000000000e-01 0.0000000000e+00 0.0000000000e+00
1.2000000000e-01 0.0000000000e+00 0.0000000000e+00
1.3000000000e-01 0.0000000000e+00 0.0000000000e+00
1.4000000000e-01 0.0000000000e+00 0.0000000000e+00
1.5000000000e-01 0.0000000000e+00 0.0000000000e+00
1.6000000000e-01 0.0000000000e+00 0.0000000000e+00
1.7000000000e-01 0.0000000000e+00 0.0000000000e+00
1.8000000000e-01 0.0000000000e+00 0.0000000000e+00
1.9000000000e-01 0.0000000000e+00 0.0000000000e+00
2.0000000000e-01 0.0000000000e+00 0.0000000000e+00
2.1000000000e-01 0.0000000000e+00 0.0000000000e+00
2.2000000000e-01 0.0000000000e+00 0.0000000000e+00
2.3000000000e-01 0.0000000000e+00 0.0000000000e+00
2.4000000000e-01 0.0000000000e+00 0.0000000000e+00
2.5000000000e-01 0.0000000000e+00 0.0000000000e+00
2.6000000000e-01 0.0000000000e+00 0.0000000000e+00
2.7000000000e-01 0.0000000000e+00 0.0000000000e+00
2.8000000000e-01 0.0000000000e+00 0.0000000000e+00
2.9000000000e-01 0.0000000000e+00 0.0000000000e+00
3.0000000000e-01 0.0000000000e+00 0.0000000000e+00
3.1000000000e-01 0.0000000000e+00 0.0000000000e+00
3.2000000000e-01 0.0000000000e+00 0.0000000000e+00
3.3000000000e-01 0.0000000000e+00 0.0000000000e+00
3.4000000000e-01 0.0000000000e+00 0.0000000000e+00
3.5000000000e-01 0.0000000000e+00 0.0000000000e+00
3.6000000000e-01 0.0000000000e+00 0.0000000000e+00
3.7000000000e-01 0.0000000000e+00 0.0000000000e+00
3.8000000000e-01 0.0000000000e+00 0.0000000000e+00
3.9000000000e-01 0.0000000000e+00 0.0000000000e+00
4.0000000000e-01 0.0000000000e+00 0.0000000000e+00
4.1000000000e-01 0.0000000000e+00 0.0000000000e+00
4.2000000000e-01 0.0000000000e+00 0.0000000000e+00
4.3000000000e-01 0.0000000000e+00 0.0000000000e+00
4.4000000000e-01 0.0000000000e+00 0.0000000000e+00
4.5000000000e-01 0.0000000000e+00 0.0000000000e+00
4.6000000000e-01 0.0000000000e+00 0.0000000000e+00
4.7000000000e-01 0.0000000000e+00 0.0000000000e+00
4.8000000000e-01 0.0000000000e+00 0.0000000000e+00
4.9000000000e-01 0.0000000000e+00 0.0000000000e+00
5.0000000000e-01 0.0000000000e+00 0.0000000000e+00
5.1000000000e-01 0.0000000000e+00 0.0000000000e+00
5.2000000000e-01 0.0000000000e+00 0.0000000000e+00
5.3000000000e-01 0.0000000000e+00 0.0000000000e+00
5.4000000000e-01 0.0000000000e+00 0.0000000000e+00
5.5000000000e-01 0.0000000000e+00 0.0000000000e+00
5.6000000000e-01 0.0000000000e+00 0.0000000000e+00
5.7000000000e-01 0.0000000000e+00 0.0000000000e+00
5.8000000000e-01 0.0000000000e+00 0.0000000000e+00
5.9000000000e-01 0.0000000000e+00 0.0000000000e+00
6.0000000000e-01 0.0000000000e+00 0.0000000000e+00
6.1000000000e-01 0.0000000000e+00 0.0000000000e+00
6.2000000000e-01 0.0000000000e+00 0.0000000000e+00
6.3000000000e-01 0.0000000000e+00 0.0000000000e+00
6.4000000000e-01 0.0000000000e+00 0.0000000000e+00
6.5000000000e-01 0.0000000000e+00 0.0000000000e+00
6.6000000000e-01 0.0000000000e+00 0.0000000000e+00
6.7000000000e-01 0.0000000000e+00 0.0000000000e+00
6.8000000000e-01 0.0000000000e+00 0.0000000000e+00
6.9000000000e-01 0.0000000000e+00 0.0000000000e+00
7.0000000000e-01 0.0000000000e+00 0.0000000000e+00
7.1000000000e-01 0.0000000000e+00 0.0000000000e+00
7.2000000000e-01 0.0000000000e+00 0.0000000000e+00
7.3000000000e-01 0.0000000000e+00 0.0000000000e+00
7.4000000000e-01 0.0000000000e+00 0.0000000000e+00
7.5000000000e-01 0.0000000000e+00 0.0000000000e+00
7.6000000000e-01 0.0000000000e+00 0.0000000000e+00
7.7000000000e-01 0.0000000000e+00 0.0000000000e+00
7.8000000000e-01 0.0000000000e+00 0.0000000000e+00
7.9000000000e-01 0.0000000000e+00 0.0000000000e+00
8.0000000000e-01 0.0000000000e+00 0.0000000000e+00
8.1000000000e-01 0.0000000000e+00 0.0000000000e+00
8.2000000000e-01 0.0000000000e+00 0.0000000000e+00
8.3000000000e-01 0.0000000000e+00 0.0000000000e+00
8.4000000000e-01 0.0000000000e+00 0.0000000000e+00
8.5000000000e-01 0.0000000000e+00 0.0000000000e+00
8.6000000000e-01 0.0000000000e+00 0.0000000000e+00
8.7000000000e-01 0.0000000000e+00 0.0000000000e+00
8.8000000000e-01 0.0000000000e+00 0.0000000000e+00
8.9000000000e-01 0.0000000000e+00 0.0000000000e+00
9.0000000000e-01 0.0000000000e+00 0.0000000000e+00
9.1000000000e-01 0.0000000000e+00 0.0000000000e+00
9.2000000000e-01 0.0000000000e+00 0.0000000000e+00
9.3000000000e-01 0.0000000000e+00 0.0000000000e+00
9.4000000000e-01 0.0000000000e+00 0.0000000000e+00
9.5000000000e-01 0.0000000000e+00 0.0000000000e+00
9.6000000000e-01 0.0000000000e+00 0.0000000000e+00
9.7000000000e-01 0.0000000000e+00 0.0000000000e+00
9.8000000000e-01 0.0000000000e+00 0.0000000000e+00
9.9000000000e-01 0.0000000000e+00 0.0000000000e+00
1.0000000000e+00 0.0000000000e+00 0.0000000000e+00
0.0000000000e+00 1.0000000000e-03 0.0000000000e+00
1.0000000000e-02 1.0000000000e-03 0.0000000000e+00
2.0000000000e-02 1.0000000000e-03 0.0000000000e+00
3.0000000000e-02 1.0000000000e-03 0.0000000000e+00
4.0000000000e-02 1.0000000000e-03 0.0000000000e+00
5.0000000000e-02 1.0000000000e-03 0.0000000000e+00
6.0000000000e-02 1.0000000000e-03 0.0000000000e+00
7.0000000000e-02 1.0000000000e-03 0.0000000000e+00
8.0000000000e-02 1.0000000000e-03 0.0000000000e+00
9.0000000000e-02 1.0000000000e-03 0.0000000000e+00
1.0000000000e-01 1.0000000000e-03 0.0000000000e+00
1.1000000000e-01 1.0000000000e-03 0.0000000000e+00
1.2000000000e-01 1.0000000000e-03 0.0000000000e+00
1.3000000000e-01 1.0000000000e-03 0.0000000000e+00
1.4000000000e-01 1.0000000000e-03 0.0000000000e+00
1.5000000000e-01 1.0000000000e-03 0.0000000000e+00
1.6000000000e-01 1.0000000000e-03 0.0000000000e+00
1.7000000000e-01 1.0000000000e-03 0.0000000000e+00
1.8000000000e-01 1.0000000000e-03 0.0000000000e+00
1.9000000000e-01 1.0000000000e-03 0.0000000000e+00
2.0000000000e-01 1.0000000000e-03 0.0000000000e+00
2.1000000000e-01 1.0000000000e-03 0.0000000000e+00
2.2000000000e-01 1.0000000000e-03 0.0000000000e+00
2.3000000000e-01 1.0000000000e-03 0.0000000000e+00
2.4000000000e-01 1.0000000000e-03 0.0000000000e+00
2.5000000000e-01 1.0000000000e-03 0.0000000000e+00
2.6000000000e-01 1.0000000000e-03 0.0000000000e+00
2.7000000000e-01 1.0000000000e-03 0.0000000000e+00
2.8000000000e-01 1.0000000000e-03 0.0000000000e+00
2.9000000000e-01 1.0000000000e-03 0.0000000000e+00
3.0000000000e-01 1.0000000000e-03 0.0000000000e+00
3.1000000000e-01 1.0000000000e-03 0.0000000000e+00
3.2000000000e-01 1.0000000000e-03 0.0000000000e+00
3.3000000000e-01 1.0000000000e-03 0.0000000000e+00
3.4000000000e-01 1.0000000000e-03 0.0000000000e+00
3.5000000000e-01 1.0000000000e-03 0.0000000000e+00
3.6000000000e-01 1.0000000000e-03 0.0000000000e+00
3.7000000000e-01 1.0000000000e-03 0.0000000000e+00
3.8000000000e-01 1.0000000000e-03 0.0000000000e+00
3.9000000000e-01 1.0000000000e-03 0.0000000000e+00
4.0000000000e-01 1.0000000000e-03 0.0000000000e+00
4.1000000000e-01 1.0000000000e-03 0.0000000000e+00
4.2000000000e-01 1.0000000000e-03 0.0000000000e+00
4.3000000000e-01 1.0000000000e-03 0.0000000000e+00
4.4000000000e-01 1.0000000000e-03 0.0000000000e+00
4.5000000000e-01 1.0000000000e-03 0.0000000000e+00
4.6000000000e-01 1.0000000000e-03 0.0000000000e+00
4.7000000000e-01 1.0000000000e-03 0.0000000000e+00
4.8000000000e-01 1.0000000000e-03 0.0000000000e+00
4.9000000000e-01 1.0000000000e-03 0.0000000000e+00
5.0000000000e-01 1.0000000000e-03 0.0000000000e+00
5.1000000000e-01 1.0000000000e-03 0.0000000000e+00
5.2000000000e-01 1.0000000000e-03 0.0000000000e+00
5.3000000000e-01 1.0000000000e-03 0.0000000000e+00
5.4000000000e-01 1.0000000000e-03 0.0000000000e+00
5.5000000000e-01 1.0000000000e-03 0.0000000000e+00
5.6000000000e-01 1.0000000000e-03 0.0000000000e+00
5.7000000000e-01 1.0000000000e-03 0.0000000000e+00
5.8000000000e-01 1.0000000000e-03 0.0000000000e+00
5.9000000000e-01 1.0000000000e-03 0.0000000000e+00
6.0000000000e-01 1.0000000000e-03 0.0000000000e+00
6.1000000000e-01 1.0000000000e-03 0.0000000000e+00
6.2000000000e-01 1.0000000000e-03 0.0000000000e+00
6.3000000000e-01 1.0000000000e-03 0.0000000000e+00
6.4000000000e-01 1.0000000000e-03 0.0000000000e+00
6.5000000000e-01 1.0000000000e-03 0.0000000000e+00
6.6000000000e-01 1.0000000000e-03 0.0000000000e+00
6.7000000000e-01 1.0000000000e-03 0.0000000000e+00
6.8000000000e-01 1.0000000000e-03 0.0000000000e+00
6.9000000000e-01 1.0000000000e-03 0.0000000000e+00
7.0000000000e-01 1.0000000000e-03 0.0000000000e+00
7.1000000000e-01 1.0000000000e-03 0.0000000000e+00
7.2000000000e-01 1.0000000000e-03 0.0000000000e+00
7.3000000000e-01 1.0000000000e-03 0.0000000000e+00
7.4000000000e-01 1.0000000000e-03 0.0000000000e+00
7.5000000000e-01 1.0000000000e-03 0.0000000000e+00
7.6000000000e-01 1.0000000000e-03 0.0000000000e+00
7.7000000000e-01 1.0000000000e-03 0.0000000000e+00
7.8000000000e-01 1.0000000000e-03 0.0000000000e+00
7.9000000000e-01 1.0000000000e-03 0.0000000000e+00
8.0000000000e-01 1.0000000000e-03 0.0000000000e+00
8.1000000000e-01 1.0000000000e-03 0.0000000000e+00
8.2000000000e-01 1.0000000000e-03 0.0000000000e+00
8.3000000000e-01 1.0000000000e-03 0.0000000000e+00
8.4000000000e-01 1.0000000000e-03 0.0000000000e+00
8.5000000000e-01 1.0000000000e-03 0.0000000000e+00
8.6000000000e-01 1.0000000000e-03 0.0000000000e+00
8.7000000000e-01 1.0000000000e-03 0.0000000000e+00
8.8000000000e-01 1.0000000000e-03 0.0000000000e+00
8.9000000000e-01 1.0000000000e-03 0.0000000000e+00
9.0000000000e-01 1.0000000000e-03 0.0000000000e+00
9.1000000000e-01 1.0000000000e-03 0.0000000000e+00
9.2000000000e-01 1.0000000000e-03 0.0000000000e+00
[...]
CELL_DATA 1000

SCALARS massDensity float
LOOKUP_TABLE default
9.9999999996e+02
9.9999999996e+02
9.9999999996e+02
9.9999999996e+02
9.9999999996e+02
9.9999999996e+02
9.9999999996e+02
9.9999999996e+02
9.9999999996e+02
9.9999999996e+02
9.9999999996e+02
9.9999999996e+02
9.9999999996e+02
9.9999999996e+02
9.9999999996e+02
9.9999999996e+02
9.9999999996e+02
9.9999999996e+02
9.9999999996e+02
9.9999999996e+02
9.9999999996e+02
9.9999999996e+02
9.9999999996e+02
9.9999999996e+02
9.9999999995e+02
9.9999999993e+02
9.9999999980e+02
9.9999999909e+02
9.9999999549e+02
9.9999997812e+02
9.9999989920e+02
9.9999956186e+02
9.9999820844e+02
9.9999312694e+02
9.9997533044e+02
9.9991740603e+02
9.9974291457e+02
9.9925865781e+02
9.9802663063e+02
9.9516749715e+02
9.8914282844e+02
9.7765540697e+02
9.5786601580e+02
9.2703564483e+02
8.8344038303e+02
8.2716133340e+02
7.6037069264e+02
6.8708438786e+02
6.1247035631e+02
5.4196801808e+02
4.8018953905e+02
4.2929028099e+02
3.8864711418e+02
3.5512140950e+02
3.2509466927e+02
2.9414655010e+02
2.5805767049e+02
2.1751325646e+02
1.7927563935e+02
1.5110810398e+02
1.3533811504e+02
1.2849455171e+02
1.2605485394e+02
1.2529339197e+02
1.2507635400e+02
1.2501870971e+02
1.2500432765e+02
1.2500094612e+02
1.2500019570e+02
1.2500003834e+02
1.2500000712e+02
1.2500000126e+02
1.2500000021e+02
1.2500000004e+02
1.2500000001e+02
1.2500000001e+02
1.2500000000e+02
1.2500000000e+02
1.2500000000e+02
1.2500000000e+02
1.2500000000e+02
1.2500000000e+02
1.2500000000e+02
1.2500000000e+02
1.2500000000e+02
1.2500000000e+02
1.2500000000e+02
1.2500000000e+02
1.2500000000e+02
1.2500000000e+02
1.2500000000e+02
1.2500000000e+02
1.2500000000e+02
1.2500000000e+02
1.2500000000e+02
1.2500000000e+02
1.2500000000e+02
1.2500000000e+02
1.2500000000e+02
1.2500000000e+02
9.9999999996e+02
9.9999999996e+02
9.9999999996e+02
9.9999999996e+02
9.9999999996e+02
9.9999999996e+02
9.9999999996e+02
9.9999999996e+02
9.9999999996e+02
9.9999999996e+02
9.9999999996e+02
9.9999999996e+02
9.9999999996e+02
9.9999999996e+02
9.9999999996e+02
9.9999999996e+02
9.9999999996e+02
9.9999999996e+02
9.9999999996e+02
9.9999999996e+02
9.9999999996e+02
9.9999999996e+02
9.9999999996e+02
9.9999999996e+02
9.9999999995e+02
9.9999999993e+02
9.9999999980e+02
9.9999999909e+02
9.9999999549e+02
9.9999997812e+02
9.9999989920e+02
9.9999956186e+02
9.9999820844e+02
9.9999312694e+02
9.9997533044e+02
9.9991740603e+02
9.9974291457e+02
9.9925865781e+02
9.9802663063e+02
9.9516749715e+02
9.8914282844e+02
9.7765540697e+02
9.5786601580e+02
9.2703564483e+02
8.8344038303e+02
8.2716133340e+02
7.6037069264e+02
6.8708438786e+02
6.1247035631e+02
5.4196801808e+02
4.8018953905e+02
4.2929028099e+02
3.8864711418e+02
3.5512140950e+02
3.2509466927e+02
2.9414655010e+02
2.5805767049e+02
2.1751325646e+02
1.7927563935e+02
1.5110810398e+02
1.3533811504e+02
1.2849455171e+02
1.2605485394e+02
1.2529339197e+02
1.2507635400e+02
1.2501870971e+02
1.2500432765e+02
1.2500094612e+02
1.2500019570e+02
1.2500003834e+02
1.2500000712e+02
1.2500000126e+02
1.2500000021e+02
1.2500000004e+02
1.2500000001e+02
1.2500000001e+02
1.2500000000e+02
1.2500000000e+02
1.2500000000e+02
1.2500000000e+02
1.2500000000e+02
1.2500000000e+02
1.2500000000e+02
1.2500000000e+02
1.2500000000e+02
1.2500000000e+02
1.2500000000e+02
1.2500000000e+02
1.2500000000e+02
1.2500000000e+02
1.2500000000e+02
1.2500000000e+02
1.2500000000e+02
1.2500000000e+02
1.2500000000e+02
1.2500000000e+02
1.2500000000e+02
1.2500000000e+02
1.2500000000e+02
1.2500000000e+02
9.9999999996e+02
9.9999999996e+02
9.9999999996e+02
9.9999999996e+02
9.9999999996e+02
9.9999999996e+02
9.9999999996e+02
9.9999999996e+02
9.9999999996e+02
9.9999999996e+02
9.9999999996e+02
9.9999999996e+02
9.9999999996e+02
9.9999999996e+02
9.9999999996e+02
9.9999999996e+02
9.9999999996e+02
9.9999999996e+02
9.9999999996e+02
9.9999999996e+02
9.9999999996e+02
9.9999999996e+02
9.9999999996e+02
9.9999999996e+02
9.9999999995e+02
9.9999999993e+02
9.9999999980e+02
9.9999999909e+02
9.9999999549e+02
9.9999997812e+02
9.9999989920e+02
9.9999956186e+02
9.9999820844e+02
9.9999312694e+02
9.9997533044e+02
9.9991740603e+02
9.9974291457e+02
9.9925865781e+02
9.9802663063e+02
9.9516749715e+02
9.8914282844e+02
9.7765540697e+02
9.5786601580e+02
9.2703564483e+02
8.8344038303e+02
8.2716133340e+02
7.6037069264e+02
6.8708438786e+02
6.1247035631e+02
5.4196801808e+02
4.8018953905e+02
4.2929028099e+02
3.8864711418e+02
3.5512140950e+02
3.2509466927e+02
2.9414655010e+02
2.5805767049e+02
2.1751325646e+02
1.7927563935e+02
1.5110810398e+02
1.3533811504e+02
1.2849455171e+02
1.2605485394e+02
1.2529339197e+02
1.2507635400e+02
1.2501870971e+02
1.2500432765e+02
1.2500094612e+02
1.2500019570e+02
1.2500003834e+02
1.2500000712e+02
1.2500000126e+02
1.2500000021e+02
1.2500000004e+02
1.2500000001e+02
1.2500000001e+02
1.2500000000e+02
1.2500000000e+02
1.2500000000e+02
1.2500000000e+02
1.2500000000e+02
1.2500000000e+02
1.2500000000e+02
1.2500000000e+02
1.2500000000e+02
1.2500000000e+02
1.2500000000e+02
1.2500000000e+02
1.2500000000e+02
1.2500000000e+02
1.2500000000e+02
1.2500000000e+02
1.2500000000e+02
1.2500000000e+02
1.2500000000e+02
1.2500000000e+02
1.2500000000e+02
1.2500000000e+02
1.2500000000e+02
1.2500000000e+02
9.9999999996e+02
9.9999999996e+02
9.9999999996e+02
9.9999999996e+02
9.9999999996e+02
9.9999999996e+02
9.9999999996e+02
9.9999999996e+02
9.9999999996e+02
9.9999999996e+02
9.9999999996e+02
9.9999999996e+02
9.9999999996e+02
9.9999999996e+02
9.9999999996e+02
9.9999999996e+02
9.9999999996e+02
9.9999999996e+02
9.9999999996e+02
9.9999999996e+02
9.9999999996e+02
9.9999999996e+02
9.9999999996e+02
9.9999999996e+02
9.9999999995e+02
9.9999999993e+02
9.9999999980e+02
9.9999999909e+02
9.9999999549e+02
9.9999997812e+02
9.9999989920e+02
9.9999956186e+02
9.9999820844e+02
9.9999312694e+02
9.9997533044e+02
9.9991740603e+02
9.9974291457e+02
9.9925865781e+02
9.9802663063e+02
9.9516749715e+02
9.8914282844e+02
9.7765540697e+02
9.5786601580e+02
9.2703564483e+02
8.8344038303e+02
8.2716133340e+02
7.6037069264e+02
6.8708438786e+02
6.1247035631e+02
5.4196801808e+02
4.8018953905e+02
4.2929028099e+02
3.8864711418e+02
3.5512140950e+02
3.2509466927e+02
2.9414655010e+02
2.5805767049e+02
2.1751325646e+02
1.7927563935e+02
1.5110810398e+02
1.3533811504e+02
1.2849455171e+02
1.2605485394e+02
1.2529339197e+02
1.2507635400e+02
1.2501870971e+02
1.2500432765e+02
1.2500094612e+02
1.2500019570e+02
1.2500003834e+02
1.2500000712e+02
1.2500000126e+02
1.2500000021e+02
1.2500000004e+02
1.2500000001e+02
1.2500000001e+02
1.2500000000e+02
1.2500000000e+02
1.2500000000e+02
1.2500000000e+02
1.2500000000e+02
1.2500000000e+02
1.2500000000e+02
1.2500000000e+02
1.2500000000e+02
1.2500000000e+02
1.2500000000e+02
1.2500000000e+02
1.2500000000e+02
1.2500000000e+02
1.2500000000e+02
1.2500000000e+02
1.2500000000e+02
1.2500000000e+02
1.2500000000e+02
1.2500000000e+02
1.2500000000e+02
1.2500000000e+02
1.2500000000e+02
1.2500000000e+02
9.9999999996e+02
9.9999999996e+02
9.9999999996e+02
9.9999999996e+02
9.9999999996e+02
9.9999999996e+02
9.9999999996e+02
9.9999999996e+02
9.9999999996e+02
9.9999999996e+02
9.9999999996e+02
9.9999999996e+02
9.9999999996e+02
9.9999999996e+02
9.9999999996e+02
9.9999999996e+02
9.9999999996e+02
9.9999999996e+02
9.9999999996e+02
9.9999999996e+02
9.9999999996e+02
9.9999999996e+02
9.9999999996e+02
9.9999999996e+02
9.9999999995e+02
9.9999999993e+02
9.9999999980e+02
9.9999999909e+02
9.9999999549e+02
9.9999997812e+02
9.9999989920e+02
9.9999956186e+02
9.9999820844e+02
9.9999312694e+02
9.9997533044e+02
9.9991740603e+02
9.9974291457e+02
9.9925865781e+02
9.9802663063e+02
9.9516749715e+02
9.8914282844e+02
9.7765540697e+02
9.5786601580e+02
9.2703564483e+02
8.8344038303e+02
8.2716133340e+02
7.6037069264e+02
6.8708438786e+02
6.1247035631e+02
5.4196801808e+02
4.8018953905e+02
4.2929028099e+02
3.8864711418e+02
3.5512140950e+02
3.2509466927e+02
2.9414655010e+02
2.5805767049e+02
2.1751325646e+02
1.7927563935e+02
1.5110810398e+02
1.3533811504e+02
1.2849455171e+02
1.2605485394e+02
1.2529339197e+02
1.2507635400e+02
1.2501870971e+02
1.2500432765e+02
1.2500094612e+02
1.2500019570e+02
1.2500003834e+02
1.2500000712e+02
1.2500000126e+02
1.2500000021e+02
1.2500000004e+02
1.2500000001e+02
1.2500000001e+02
1.2500000000e+02
1.2500000000e+02
1.2500000000e+02
1.2500000000e+02
1.2500000000e+02
1.2500000000e+02
1.2500000000e+02
1.2500000000e+02
1.2500000000e+02
1.2500000000e+02
1.2500000000e+02
1.2500000000e+02
1.2500000000e+02
1.2500000000e+02
1.2500000000e+02
1.2500000000e+02
1.2500000000e+02
1.2500000000e+02
1.2500000000e+02
1.2500000000e+02
1.2500000000e+02
1.2500000000e+02
1.2500000000e+02
1.2500000000e+02
9.9999999996e+02
9.9999999996e+02
9.9999999996e+02
9.9999999996e+02
9.9999999996e+02
9.9999999996e+02
9.9999999996e+02
9.9999999996e+02
9.9999999996e+02
9.9999999996e+02
9.9999999996e+02
9.9999999996e+02
9.9999999996e+02
9.9999999996e+02
9.9999999996e+02
9.9999999996e+02
9.9999999996e+02
9.9999999996e+02
9.9999999996e+02
9.9999999996e+02
9.9999999996e+02
9.9999999996e+02
9.9999999996e+02
9.9999999996e+02
9.9999999995e+02
9.9999999993e+02
9.9999999980e+02
9.9999999909e+02
9.9999999549e+02
9.9999997812e+02
9.9999989920e+02
9.9999956186e+02
9.9999820844e+02
9.9999312694e+02
9.9997533044e+02
9.9991740603e+02
9.9974291457e+02
9.9925865781e+02
9.9802663063e+02
9.9516749715e+02
9.8914282844e+02
9.7765540697e+02
9.5786601580e+02
9.2703564483e+02
8.8344038303e+02
8.2716133340e+02
7.6037069264e+02
6.8708438786e+02
6.1247035631e+02
5.4196801808e+02
4.8018953905e+02
4.2929028099e+02
3.8864711418e+02
3.5512140950e+02
3.2509466927e+02
2.9414655010e+02
2.5805767049e+02
2.1751325646e+02
1.7927563935e+02
1.5110810398e+02
1.3533811504e+02
1.2849455171e+02
1.2605485394e+02
1.2529339197e+02
1.2507635400e+02
1.2501870971e+02
1.2500432765e+02
1.2500094612e+02
1.2500019570e+02
1.2500003834e+02
1.2500000712e+02
1.2500000126e+02
1.2500000021e+02
1.2500000004e+02
1.2500000001e+02
1.2500000001e+02
1.2500000000e+02
1.2500000000e+02
1.2500000000e+02
1.2500000000e+02
1.2500000000e+02
1.2500000000e+02
1.2500000000e+02
1.2500000000e+02
1.2500000000e+02
1.2500000000e+02
1.2500000000e+02
1.2500000000e+02
1.2500000000e+02
1.2500000000e+02
1.2500000000e+02
1.2500000000e+02
1.2500000000e+02
1.2500000000e+02
1.2500000000e+02
1.2500000000e+02
1.2500000000e+02
1.2500000000e+02
1.2500000000e+02
1.2500000000e+02
9.9999999996e+02
9.9999999996e+02
9.9999999996e+02
9.9999999996e+02
9.9999999996e+02
9.9999999996e+02
9.9999999996e+02
9.9999999996e+02
9.9999999996e+02
9.9999999996e+02
9.9999999996e+02
9.9999999996e+02
9.9999999996e+02
9.9999999996e+02
9.9999999996e+02
9.9999999996e+02
9.9999999996e+02
9.9999999996e+02
9.9999999996e+02
9.9999999996e+02
9.9999999996e+02
9.9999999996e+02
9.9999999996e+02
9.9999999996e+02
9.9999999995e+02
9.9999999993e+02
9.9999999980e+02
9.9999999909e+02
9.9999999549e+02
9.9999997812e+02
9.9999989920e+02
9.9999956186e+02
9.9999820844e+02
9.9999312694e+02
9.9997533044e+02
9.9991740603e+02
9.9974291457e+02
9.9925865781e+02
9.9802663063e+02
9.9516749715e+02
9.8914282844e+02
9.7765540697e+02
9.5786601580e+02
9.2703564483e+02
8.8344038303e+02
8.2716133340e+02
7.6037069264e+02
6.8708438786e+02
6.1247035631e+02
5.4196801808e+02
4.8018953905e+02
4.2929028099e+02
3.8864711418e+02
3.5512140950e+02
3.2509466927e+02
2.9414655010e+02
2.5805767049e+02
2.1751325646e+02
1.7927563935e+02
1.5110810398e+02
1.3533811504e+02
1.2849455171e+02
1.2605485394e+02
1.2529339197e+02
1.2507635400e+02
1.2501870971e+02
1.2500432765e+02
1.2500094612e+02
1.2500019570e+02
1.2500003834e+02
1.2500000712e+02
1.2500000126e+02
1.2500000021e+02
1.2500000004e+02
1.2500000001e+02
1.2500000001e+02
1.2500000000e+02
1.2500000000e+02
1.2500000000e+02
1.2500000000e+02
1.2500000000e+02
1.2500000000e+02
1.2500000000e+02
1.2500000000e+02
1.2500000000e+02
1.2500000000e+02
1.2500000000e+02
1.2500000000e+02
1.2500000000e+02
1.2500000000e+02
1.2500000000e+02
1.2500000000e+02
1.2500000000e+02
1.2500000000e+02
1.2500000000e+02
1.2500000000e+02
1.2500000000e+02
1.2500000000e+02
1.2500000000e+02
1.2500000000e+02
9.9999999996e+02
9.9999999996e+02
9.9999999996e+02
9.9999999996e+02
9.9999999996e+02
9.9999999996e+02
9.9999999996e+02
9.9999999996e+02
9.9999999996e+02
9.9999999996e+02
9.9999999996e+02
9.9999999996e+02
9.9999999996e+02
9.9999999996e+02
9.9999999996e+02
9.9999999996e+02
9.9999999996e+02
9.9999999996e+02
9.9999999996e+02
9.9999999996e+02
9.9999999996e+02
9.9999999996e+02
9.9999999996e+02
9.9999999996e+02
9.9999999995e+02
9.9999999993e+02
9.9999999980e+02
9.9999999909e+02
9.9999999549e+02
9.9999997812e+02
9.9999989920e+02
9.9999956186e+02
9.9999820844e+02
9.9999312694e+02
9.9997533044e+02
9.9991740603e+02
9.9974291457e+02
9.9925865781e+02
9.9802663063e+02
9.9516749715e+02
9.8914282844e+02
9.7765540697e+02
9.5786601580e+02
9.2703564483e+02
8.8344038303e+02
8.2716133340e+02
7.6037069264e+02
6.8708438786e+02
6.1247035631e+02
5.4196801808e+02
4.8018953905e+02
4.2929028099e+02
3.8864711418e+02
3.5512140950e+02
3.2509466927e+02
2.9414655010e+02
2.5805767049e+02
2.1751325646e+02
1.7927563935e+02
1.5110810398e+02
1.3533811504e+02
1.2849455171e+02
1.2605485394e+02
1.2529339197e+02
1.2507635400e+02
1.2501870971e+02
1.2500432765e+02
1.2500094612e+02
1.2500019570e+02
1.2500003834e+02
1.2500000712e+02
1.2500000126e+02
1.2500000021e+02
1.2500000004e+02
1.2500000001e+02
1.2500000001e+02
1.2500000000e+02
1.2500000000e+02
1.2500000000e+02
1.2500000000e+02
1.2500000000e+02
1.2500000000e+02
1.2500000000e+02
1.2500000000e+02
1.2500000000e+02
1.2500000000e+02
1.2500000000e+02
1.2500000000e+02
1.2500000000e+02
1.2500000000e+02
1.2500000000e+02
1.2500000000e+02
1.2500000000e+02
1.2500000000e+02
1.2500000000e+02
1.2500000000e+02
1.2500000000e+02
1.2500000000e+02
1.2500000000e+02
1.2500000000e+02
9.9999999996e+02
9.9999999996e+02
9.9999999996e+02
9.9999999996e+02
9.9999999996e+02
9.9999999996e+02
9.9999999996e+02
9.9999999996e+02
9.9999999996e+02
9.9999999996e+02
9.9999999996e+02
9.9999999996e+02
9.9999999996e+02
9.9999999996e+02
9.9999999996e+02
9.9999999996e+02
9.9999999996e+02
9.9999999996e+02
9.9999999996e+02
9.9999999996e+02
9.9999999996e+02
9.9999999996e+02
9.9999999996e+02
9.9999999996e+02
9.9999999995e+02
9.9999999993e+02
9.9999999980e+02
9.9999999909e+02
9.9999999549e+02
9.9999997812e+02
9.9999989920e+02
9.9999956186e+02
9.9999820844e+02
9.9999312694e+02
9.9997533044e+02
9.9991740603e+02
9.9974291457e+02
9.9925865781e+02
9.9802663063e+02
9.9516749715e+02
9.8914282844e+02
9.7765540697e+02
9.5786601580e+02
9.2703564483e+02
8.8344038303e+02
8.2716133340e+02
7.6037069264e+02
6.8708438786e+02
6.1247035631e+02
5.4196801808e+02
4.8018953905e+02
4.2929028099e+02
3.8864711418e+02
3.5512140950e+02
3.2509466927e+02
2.9414655010e+02
2.5805767049e+02
2.1751325646e+02
1.7927563935e+02
1.5110810398e+02
1.3533811504e+02
1.2849455171e+02
1.2605485394e+02
1.2529339197e+02
1.2507635400e+02
1.2501870971e+02
1.2500432765e+02
1.2500094612e+02
1.2500019570e+02
1.2500003834e+02
1.2500000712e+02
1.2500000126e+02
1.2500000021e+02
1.2500000004e+02
1.2500000001e+02
1.2500000001e+02
1.2500000000e+02
1.2500000000e+02
1.2500000000e+02
1.2500000000e+02
1.2500000000e+02
1.2500000000e+02
1.2500000000e+02
1.2500000000e+02
1.2500000000e+02
1.2500000000e+02
1.2500000000e+02
1.2500000000e+02
1.2500000000e+02
1.2500000000e+02
1.2500000000e+02
1.2500000000e+02
1.2500000000e+02
1.2500000000e+02
1.2500000000e+02
1.2500000000e+02
1.2500000000e+02
1.2500000000e+02
1.2500000000e+02
1.2500000000e+02
9.9999999996e+02
9.9999999996e+02
9.9999999996e+02
9.9999999996e+02
9.9999999996e+02
9.9999999996e+02
9.9999999996e+02
9.9999999996e+02
9.9999999996e+02
9.9999999996e+02
9.9999999996e+02
9.9999999996e+02
9.9999999996e+02
9.9999999996e+02
9.9999999996e+02
9.9999999996e+02
9.9999999996e+02
9.9999999996e+02
9.9999999996e+02
9.9999999996e+02
9.9999999996e+02
9.9999999996e+02
9.9999999996e+02
9.9999999996e+02
9.9999999995e+02
9.9999999993e+02
9.9999999980e+02
9.9999999909e+02
9.9999999549e+02
9.9999997812e+02
9.9999989920e+02
9.9999956186e+02
9.9999820844e+02
9.9999312694e+02
9.9997533044e+02
9.9991740603e+02
9.9974291457e+02
9.9925865781e+02
9.9802663063e+02
9.9516749715e+02
9.8914282844e+02
9.7765540697e+02
9.5786601580e+02
9.2703564483e+02
8.8344038303e+02
8.2716133340e+02
7.6037069264e+02
6.8708438786e+02
6.1247035631e+02
5.4196801808e+02
4.8018953905e+02
4.2929028099e+02
3.8864711418e+02
3.5512140950e+02
3.2509466927e+02
2.9414655010e+02
2.5805767049e+02
2.1751325646e+02
1.7927563935e+02
1.5110810398e+02
1.3533811504e+02
1.2849455171e+02
1.2605485394e+02
1.2529339197e+02
1.2507635400e+02
1.2501870971e+02
1.2500432765e+02
1.2500094612e+02
1.2500019570e+02
1.2500003834e+02
1.2500000712e+02
1.2500000126e+02
1.2500000021e+02
1.2500000004e+02
1.2500000001e+02
1.2500000001e+02
1.2500000000e+02
1.2500000000e+02
1.2500000000e+02
1.2500000000e+02
1.2500000000e+02
1.2500000000e+02
1.2500000000e+02
1.2500000000e+02
1.2500000000e+02
1.2500000000e+02
1.2500000000e+02
1.2500000000e+02
1.2500000000e+02
1.2500000000e+02
1.2500000000e+02
1.2500000000e+02
1.2500000000e+02
1.2500000000e+02
1.2500000000e+02
1.2500000000e+02
1.2500000000e+02
1.2500000000e+02
1.2500000000e+02
1.2500000000e+02

SCALARS molarDensity float
LOOKUP_TABLE default
1.2977624132e+05
1.2977624132e+05
1.2977624132e+05
1.2977624132e+05
1.2977624132e+05
1.2977624132e+05
1.2977624132e+05
1.2977624132e+05
1.2977624132e+05
1.2977624132e+05
1.2977624132e+05
1.2977624132e+05
1.2977624132e+05
1.2977624132e+05
1.2977624132e+05
1.2977624132e+05
1.2977624132e+05
1.2977624132e+05
1.2977624132e+05
1.2977624132e+05
1.2977624132e+05
1.2977624132e+05
1.2977624132e+05
1.2977624132e+05
1.2977624132e+05
1.2977624132e+05
1.2977624130e+05
1.2977624121e+05
1.2977624074e+05
1.2977623849e+05
1.2977622825e+05
1.2977618447e+05
1.2977600883e+05
1.2977534937e+05
1.2977303980e+05
1.2976552259e+05
1.2974287775e+05
1.2968003272e+05
1.2952014487e+05
1.2914909727e+05
1.2836723841e+05
1.2687644403e+05
1.2430825122e+05
1.2030720156e+05
1.1464957235e+05
1.0734588882e+05
9.8678050506e+04
8.9167229330e+04
7.9484100766e+04
7.0334572306e+04
6.2317193503e+04
5.5711679105e+04
5.0437161680e+04
4.6086321740e+04
4.2189564253e+04
3.8173233672e+04
3.3489754522e+04
2.8228052863e+04
2.3265718636e+04
1.9610241768e+04
1.7563671879e+04
1.6675539952e+04
1.6358925145e+04
1.6260105473e+04
1.6231939101e+04
1.6224458242e+04
1.6222591792e+04
1.6222152950e+04
1.6222055563e+04
1.6222035141e+04
1.6222031090e+04
1.6222030329e+04
1.6222030194e+04
1.6222030171e+04
1.6222030167e+04
1.6222030167e+04
1.6222030166e+04
1.6222030166e+04
1.6222030166e+04
1.6222030166e+04
1.6222030166e+04
1.6222030166e+04
1.6222030166e+04
1.6222030166e+04
1.6222030166e+04
1.6222030166e+04
1.6222030166e+04
1.6222030166e+04
1.6222030166e+04
1.6222030166e+04
1.6222030166e+04
1.6222030166e+04
1.6222030166e+04
1.6222030166e+04
1.6222030166e+04
1.6222030166e+04
1.6222030166e+04
1.6222030166e+04
1.6222030166e+04
1.6222030166e+04
1.2977624132e+05
1.2977624132e+05
1.2977624132e+05
1.2977624132e+05
1.2977624132e+05
1.2977624132e+05
1.2977624132e+05
1.2977624132e+05
1.2977624132e+05
1.2977624132e+05
1.2977624132e+05
1.2977624132e+05
1.2977624132e+05
1.2977624132e+05
1.2977624132e+05
1.2977624132e+05
1.2977624132e+05
1.2977624132e+05
1.2977624132e+05
1.2977624132e+05
1.2977624132e+05
1.2977624132e+05
1.2977624132e+05
1.2977624132e+05
1.2977624132e+05
1.2977624132e+05
1.2977624130e+05
1.2977624121e+05
1.2977624074e+05
1.2977623849e+05
1.2977622825e+05
1.2977618447e+05
1.2977600883e+05
1.2977534937e+05
1.2977303980e+05
1.2976552259e+05
1.2974287775e+05
1.2968003272e+05
1.2952014487e+05
1.2914909727e+05
1.2836723841e+05
1.2687644403e+05
1.2430825122e+05
1.2030720156e+05
1.1464957235e+05
1.0734588882e+05
9.8678050506e+04
8.9167229330e+04
7.9484100766e+04
7.0334572306e+04
6.2317193503e+04
5.5711679105e+04
5.0437161680e+04
4.6086321740e+04
4.2189564253e+04
3.8173233672e+04
3.3489754522e+04
2.8228052863e+04
2.3265718636e+04
1.9610241768e+04
1.7563671879e+04
1.6675539952e+04
1.6358925145e+04
1.6260105473e+04
1.6231939101e+04
1.6224458242e+04
1.6222591792e+04
1.6222152950e+04
1.6222055563e+04