# vtk DataFile Version 2.0
Blank
ASCII
DATASET STRUCTURED_GRID
DIMENSIONS 101 11 2
POINTS 2222 float
0.0000000000e+00 0.0000000000e+00 0.0000000000e+00
1.0000000000e-02 0.0000000000e+00 0.0000000000e+00
2.0000000000e-02 0.0000000000e+00 0.0000000000e+00
3.0000000000e-02 0.0000000000e+00 0.0000000000e+00
4.0000000000e-02 0.0000000000e+00 0.0000000000e+00
5.0000000000e-02 0.0000000000e+00 0.0000000000e+00
6.0000000000e-02 0.0000000000e+00 0.0000000000e+00
7.0000000000e-02 0.0000000000e+00 0.0000000000e+00
8.0000000000e-02 0.0000000000e+00 0.0000000000e+00
9.0000000000e-02 0.0000000000e+00 0.0000000000e+00
1.0000000000e-01 0.0000000000e+00 0.0000000000e+00
1.1000000000e-01 0.0000000000e+00 0.0000000000e+00
1.2000000000e-01 0.0000000000e+00 0.0000000000e+00
1.3000000000e-01 0.0000000000e+00 0.0000000000e+00
1.4000000000e-01 0.0000000000e+00 0.0000000000e+00
1.5000000000e-01 0.0000000000e+00 0.0000000000e+00
1.6000000000e-01 0.0000000000e+00 0.0000000000e+00
1.7000000000e-01 0.0000000000e+00 0.0000000000e+00
1.8000000000e-01 0.0000000000e+00 0.0000000000e+00
1.9000000000e-01 0.0000000000e+00 0.0000000000e+00
2.0000000000e-01 0.0000000000e+00 0.0000000000e+00
2.1000000000e-01 0.0000000000e+00 0.0000000000e+00
2.2000000000e-01 0.0000000000e+00 0.0000000000e+00
2.3000000000e-01 0.0000000000e+00 0.0000000000e+00
2.4000000000e-01 0.0000000000e+00 0.0000000000e+00
2.5000000000e-01 0.0000000000e+00 0.0000000000e+00
2.6000000000e-01 0.0000000000e+00 0.0000000000e+00
2.7000000000e-01 0.0000000000e+00 0.0000000000e+00
2.8000000000e-01 0.0000000000e+00 0.0000000000e+00
2.9000000000e-01 0.0000000000e+00 0.0000000000e+00
3.0000000000e-01 0.0000000000e+00 0.0000000000e+00
3.1000000000e-01 0.0000000000e+00 0.0000000000e+00
3.2000000000e-01 0.0000000000e+00 0.0000000000e+00
3.3000000000e-01 0.0000000000e+00 0.0000000000e+00
3.4000000000e-01 0.0000000000e+00 0.0000000000e+00
3.5000000000e-01 0.0000000000e+00 0.0000000000e+00
3.6000000000e-01 0.0000000000e+00 0.0000000000e+00
3.7000000000e-01 0.0000000000e+00 0.0000000000e+00
3.8000000000e-01 0.0000000000e+00 0.0000000000e+00
3.9000000000e-01 0.0000000000e+00 0.0000000000e+00
4.0000000000e-01 0.0000000000e+00 0.0000000000e+00
4.1000000000e-01 0.0000000000e+00 0.0000000000e+00
4.2000000000e-01 0.0000000000e+00 0.0000000000e+00
4.3000000000e-01 0.0000000000e+00 0.0000000000e+00
4.4000000000e-01 0.0000000000e+00 0.0000000000e+00
4.5000000000e-01 0.0000000000e+00 0.0000000000e+00
4.6000000000e-01 0.0000000000e+00 0.0000000000e+00
4.7000000000e-01 0.0000000000e+00 0.0000000000e+00
4.8000000000e-01 0.0000000000e+00 0.0000000000e+00
4.9000000000e-01 0.0000000000e+00 0.0000000000e+00
5.0000000000e-01 0.0000000000e+00 0.0000000000e+00
5.1000000000e-01 0.0000000000e+00 0.0000000000e+00
5.2000000000e-01 0.0000000000e+00 0.0000000000e+00
5.3000000000e-01 0.0000000000e+00 0.0000000000e+00
5.4000000000e-01 0.0000000000e+00 0.0000000000e+00
5.5000000000e-01 0.0000000000e+00 0.0000000000e+00
5.6000000000e-01 0.0000000000e+00 0.0000000000e+00
5.7000000000e-01 0.0000000000e+00 0.0000000000e+00
5.8000000000e-01 0.0000000000e+00 0.0000000000e+00
5.9000000000e-01 0.0000000000e+00 0.0000000000e+00
6.0000000000e-01 0.0000000000e+00 0.0000000000e+00
6.1000000000e-01 0.0000000000e+00 0.0000000000e+00
6.2000000000e-01 0.0000000000e+00 0.0000000000e+00
6.3000000000e-01 0.0000000000e+00 0.0000000000e+00
6.4000000000e-01 0.0000000000e+00 0.0000000000e+00
6.5000000000e-01 0.0000000000e+00 0.0000000000e+00
6.6000000000e-01 0.0000000000e+00 0.0000000000e+00
6.7000000000e-01 0.0000000000e+00 0.0000000000e+00
6.8000000000e-01 0.0000000000e+00 0.0000000000e+00
6.9000000000e-01 0.0000000000e+00 0.0000000000e+00
7.0000000000e-01 0.0000000000e+00 0.0000000000e+00
7.1000000000e-01 0.0000000000e+00 0.0000000000e+00
7.2000000000e-01 0.0000000000e+00 0.0000000000e+00
7.3000000000e-01 0.0000000000e+00 0.0000000000e+00
7.4000000000e-01 0.0000000000e+00 0.0000000000e+00
7.5000000000e-01 0.0000000000e+00 0.0000000000e+00
7.6000000000e-01 0.0000000000e+00 0.0000000000e+00
7.7000000000e-01 0.0000000000e+00 0.0000000000e+00
7.8000000000e-01 0.0000000000e+00 0.0000000000e+00
7.9000000000e-01 0.0000000000e+00 0.0000000000e+00
8.0000000000e-01 0.0000000000e+00 0.0000000000e+00
8.1000000000e-01 0.0000000000e+00 0.0000000000e+00
8.2000000000e-01 0.0000000000e+00 0.0000000000e+00
8.3000000000e-01 0.0000000000e+00 0.0000000000e+00
8.4000000000e-01 0.0000000000e+00 0.0000000000e+00
8.5000000000e-01 0.0000000000e+00 0.0000000000e+00
8.6000000000e-01 0.0000000000e+00 0.0000000000e+00
8.7000000000e-01 0.0000000000e+00 0.0000000000e+00
8.8000000000e-01 0.0000000000e+00 0.0000000000e+00
8.9000000000e-01 0.0000000000e+00 0.0000000000e+00
9.0000000000e-01 0.0000000000e+00 0.0000000000e+00
9.1000000000e-01 0.0000000000e+00 0.0000000000e+00
9.2000000000e-01 0.0000000000e+00 0.0000000000e+00
9.3000000000e-01 0.0000000000e+00 0.0000000000e+00
9.4000000000e-01 0.0000000000e+00 0.0000000000e+00
9.5000000000e-01 0.0000000000e+00 0.0000000000e+00
9.6000000000e-01 0.0000000000e+00 0.0000000000e+00
9.7000000000e-01 0.0000000000e+00 0.0000000000e+00
9.8000000000e-01 0.0000000000e+00 0.0000000000e+00
9.9000000000e-01 0.0000000000e+00 0.0000000000e+00
1.0000000000e+00 0.0000000000e+00 0.0000000000e+00
0.0000000000e+00 1.0000000000e-03 0.0000000000e+00
1.0000000000e-02 1.0000000000e-03 0.0000000000e+00
2.0000000000e-02 1.0000000000e-03 0.0000000000e+00
3.0000000000e-02 1.0000000000e-03 0.0000000000e+00
4.0000000000e-02 1.0000000000e-03 0.0000000000e+00
5.0000000000e-02 1.0000000000e-03 0.0000000000e+00
6.0000000000e-02 1.0000000000e-03 0.0000000000e+00
7.0000000000e-02 1.0000000000e-03 0.0000000000e+00
8.0000000000e-02 1.0000000000e-03 0.0000000000e+00
9.0000000000e-02 1.0000000000e-03 0.0000000000e+00
1.0000000000e-01 1.0000000000e-03 0.0000000000e+00
1.1000000000e-01 1.0000000000e-03 0.0000000000e+00
1.2000000000e-01 1.0000000000e-03 0.0000000000e+00
1.3000000000e-01 1.0000000000e-03 0.0000000000e+00
1.4000000000e-01 1.0000000000e-03 0.0000000000e+00
1.5000000000e-01 1.0000000000e-03 0.0000000000e+00
1.6000000000e-01 1.0000000000e-03 0.0000000000e+00
1.7000000000e-01 1.0000000000e-03 0.0000000000e+00
1.8000000000e-01 1.0000000000e-03 0.0000000000e+00
1.9000000000e-01 1.0000000000e-03 0.0000000000e+00
2.0000000000e-01 1.0000000000e-03 0.0000000000e+00
2.1000000000e-01 1.0000000000e-03 0.0000000000e+00
2.2000000000e-01 1.0000000000e-03 0.0000000000e+00
2.3000000000e-01 1.0000000000e-03 0.0000000000e+00
2.4000000000e-01 1.0000000000e-03 0.0000000000e+00
2.5000000000e-01 1.0000000000e-03 0.0000000000e+00
2.6000000000e-01 1.0000000000e-03 0.0000000000e+00
2.7000000000e-01 1.0000000000e-03 0.0000000000e+00
2.8000000000e-01 1.0000000000e-03 0.0000000000e+00
2.9000000000e-01 1.0000000000e-03 0.0000000000e+00
3.0000000000e-01 1.0000000000e-03 0.0000000000e+00
3.1000000000e-01 1.0000000000e-03 0.0000000000e+00
3.2000000000e-01 1.0000000000e-03 0.0000000000e+00
3.3000000000e-01 1.0000000000e-03 0.0000000000e+00
3.4000000000e-01 1.0000000000e-03 0.0000000000e+00
3.5000000000e-01 1.0000000000e-03 0.0000000000e+00
3.6000000000e-01 1.0000000000e-03 0.0000000000e+00
3.7000000000e-01 1.0000000000e-03 0.0000000000e+00
3.8000000000e-01 1.0000000000e-03 0.0000000000e+00
3.9000000000e-01 1.0000000000e-03 0.0000000000e+00
4.0000000000e-01 1.0000000000e-03 0.0000000000e+00
4.1000000000e-01 1.0000000000e-03 0.0000000000e+00
4.2000000000e-01 1.0000000000e-03 0.0000000000e+00
4.3000000000e-01 1.0000000000e-03 0.0000000000e+00
4.4000000000e-01 1.0000000000e-03 0.0000000000e+00
4.5000000000e-01 1.0000000000e-03 0.0000000000e+00
4.6000000000e-01 1.0000000000e-03 0.0000000000e+00
4.7000000000e-01 1.0000000000e-03 0.0000000000e+00
4.8000000000e-01 1.0000000000e-03 0.0000000000e+00
4.9000000000e-01 1.0000000000e-03 0.0000000000e+00
5.0000000000e-01 1.0000000000e-03 0.0000000000e+00
5.1000000000e-01 1.0000000000e-03 0.0000000000e+00
5.2000000000e-01 1.0000000000e-03 0.0000000000e+00
5.3000000000e-01 1.0000000000e-03 0.0000000000e+00
5.4000000000e-01 1.0000000000e-03 0.0000000000e+00
5.5000000000e-01 1.0000000000e-03 0.0000000000e+00
5.6000000000e-01 1.0000000000e-03 0.0000000000e+00
5.7000000000e-01 1.0000000000e-03 0.0000000000e+00
5.8000000000e-01 1.0000000000e-03 0.0000000000e+00
5.9000000000e-01 1.0000000000e-03 0.0000000000e+00
6.0000000000e-01 1.0000000000e-03 0.0000000000e+00
6.1000000000e-01 1.0000000000e-03 0.0000000000e+00
6.2000000000e-01 1.0000000000e-03 0.0000000000e+00
6.3000000000e-01 1.0000000000e-03 0.0000000000e+00
6.4000000000e-01 1.0000000000e-03 0.0000000000e+00
6.5000000000e-01 1.0000000000e-03 0.0000000000e+00
6.6000000000e-01 1.0000000000e-03 0.0000000000e+00
6.7000000000e-01 1.0000000000e-03 0.0000000000e+00
6.8000000000e-01 1.0000000000e-03 0.0000000000e+00
6.9000000000e-01 1.0000000000e-03 0.0000000000e+00
7.0000000000e-01 1.0000000000e-03 0.0000000000e+00
7.1000000000e-01 1.0000000000e-03 0.0000000000e+00
7.2000000000e-01 1.0000000000e-03 0.0000000000e+00
7.3000000000e-01 1.0000000000e-03 0.0000000000e+00
7.4000000000e-01 1.0000000000e-03 0.0000000000e+00
7.5000000000e-01 1.0000000000e-03 0.0000000000e+00
7.6000000000e-01 1.0000000000e-03 0.0000000000e+00
7.7000000000e-01 1.0000000000e-03 0.0000000000e+00
7.8000000000e-01 1.0000000000e-03 0.0000000000e+00
7.9000000000e-01 1.0000000000e-03 0.0000000000e+00
8.0000000000e-01 1.0000000000e-03 0.0000000000e+00
8.1000000000e-01 1.0000000000e-03 0.0000000000e+00
8.2000000000e-01 1.0000000000e-03 0.0000000000e+00
8.3000000000e-01 1.0000000000e-03 0.0000000000e+00
8.4000000000e-01 1.0000000000e-03 0.0000000000e+00
8.5000000000e-01 1.0000000000e-03 0.0000000000e+00
8.6000000000e-01 1.0000000000e-03 0.0000000000e+00
8.7000000000e-01 1.0000000000e-03 0.0000000000e+00
8.8000000000e-01 1.0000000000e-03 0.0000000000e+00
8.9000000000e-01 1.0000000000e-03 0.0000000000e+00
9.0000000000e-01 1.0000000000e-03 0.0000000000e+00
9.1000000000e-01 1.0000000000e-03 0.0000000000e+00
9.2000000000e-01 1.0000000000e-03 0.0000000000e+00
[...]
CELL_DATA 1000

SCALARS massDensity float
LOOKUP_TABLE default
9.9999970670e+02
9.9999953815e+02
9.9999903172e+02
9.9999793654e+02
9.9999566959e+02
9.9999110890e+02
9.9998216873e+02
9.9996509247e+02
9.9993332734e+02
9.9987581725e+02
9.9977454815e+02
9.9960122989e+02
9.9931313218e+02
9.9884833223e+02
9.9812097366e+02
9.9701752170e+02
9.9539530472e+02
9.9308468234e+02
9.8989581531e+02
9.8563018222e+02
9.8009583951e+02
9.7312429898e+02
9.6458622438e+02
9.5440322839e+02
9.4255389415e+02
9.2907345700e+02
9.1404790273e+02
8.9760416603e+02
8.7989846128e+02
8.6110459724e+02
8.4140362216e+02
8.2097554516e+02
7.9999335679e+02
7.7861920667e+02
7.5700239838e+02
7.3527879614e+02
7.1357125762e+02
6.9199077093e+02
6.7063805096e+02
6.4960542363e+02
6.2897888589e+02
6.0884027097e+02
5.8926946890e+02
5.7034664867e+02
5.5215439314e+02
5.3477958286e+02
5.1831473781e+02
5.0285834202e+02
4.8851344808e+02
4.7538364825e+02
4.6356544394e+02
4.5313637129e+02
4.4413918200e+02
4.3656395119e+02
4.3033166274e+02
4.2528343213e+02
4.2117815950e+02
4.1770232209e+02
4.1447975502e+02
4.1109430714e+02
4.0711599087e+02
4.0213810209e+02
3.9582770522e+02
3.8798272589e+02
3.7857986809e+02
3.6779506446e+02
3.5598545630e+02
3.4363547389e+02
3.3128185740e+02
3.1943741743e+02
3.0853011465e+02
2.9886611011e+02
2.9061733520e+02
2.8382886305e+02
2.7843996724e+02
2.7431509631e+02
2.7128539244e+02
2.6920047803e+02
2.6796432504e+02
2.6745240589e+02
2.6711265450e+02
2.6518525452e+02
2.5821221900e+02
2.4235893121e+02
2.1693984390e+02
1.8690009780e+02
1.6021169736e+02
1.4205757582e+02
1.3227783549e+02
1.2786154970e+02
1.2607634301e+02
1.2539594906e+02
1.2514393639e+02
1.2505191619e+02
1.2501860120e+02
1.2500662025e+02
1.2500233981e+02
1.2500082243e+02
1.2500029266e+02
1.2500013666e+02
9.9999970670e+02
9.9999953815e+02
9.9999903172e+02
9.9999793654e+02
9.9999566959e+02
9.9999110890e+02
9.9998216873e+02
9.9996509247e+02
9.9993332734e+02
9.9987581725e+02
9.9977454815e+02
9.9960122989e+02
9.9931313218e+02
9.9884833223e+02
9.9812097366e+02
9.9701752170e+02
9.9539530472e+02
9.9308468234e+02
9.8989581531e+02
9.8563018222e+02
9.8009583951e+02
9.7312429898e+02
9.6458622438e+02
9.5440322839e+02
9.4255389415e+02
9.2907345700e+02
9.1404790273e+02
8.9760416603e+02
8.7989846128e+02
8.6110459724e+02
8.4140362216e+02
8.2097554516e+02
7.9999335679e+02
7.7861920667e+02
7.5700239838e+02
7.3527879614e+02
7.1357125762e+02
6.9199077093e+02
6.7063805096e+02
6.4960542363e+02
6.2897888589e+02
6.0884027097e+02
5.8926946890e+02
5.7034664867e+02
5.5215439314e+02
5.3477958286e+02
5.1831473781e+02
5.0285834202e+02
4.8851344808e+02
4.7538364825e+02
4.6356544394e+02
4.5313637129e+02
4.4413918200e+02
4.3656395119e+02
4.3033166274e+02
4.2528343213e+02
4.2117815950e+02
4.1770232209e+02
4.1447975502e+02
4.1109430714e+02
4.0711599087e+02
4.0213810209e+02
3.9582770522e+02
3.8798272589e+02
3.7857986809e+02
3.6779506446e+02
3.5598545630e+02
3.4363547389e+02
3.3128185740e+02
3.1943741743e+02
3.0853011465e+02
2.9886611011e+02
2.9061733520e+02
2.8382886305e+02
2.7843996724e+02
2.7431509631e+02
2.7128539244e+02
2.6920047803e+02
2.6796432504e+02
2.6745240589e+02
2.6711265450e+02
2.6518525452e+02
2.5821221900e+02
2.4235893121e+02
2.1693984390e+02
1.8690009780e+02
1.6021169736e+02
1.4205757582e+02
1.3227783549e+02
1.2786154970e+02
1.2607634301e+02
1.2539594906e+02
1.2514393639e+02
1.2505191619e+02
1.2501860120e+02
1.2500662025e+02
1.2500233981e+02
1.2500082243e+02
1.2500029266e+02
1.2500013666e+02
9.9999970670e+02
9.9999953815e+02
9.9999903172e+02
9.9999793654e+02
9.9999566959e+02
9.9999110890e+02
9.9998216873e+02
9.9996509247e+02
9.9993332734e+02
9.9987581725e+02
9.9977454815e+02
9.9960122989e+02
9.9931313218e+02
9.9884833223e+02
9.9812097366e+02
9.9701752170e+02
9.9539530472e+02
9.9308468234e+02
9.8989581531e+02
9.8563018222e+02
9.8009583951e+02
9.7312429898e+02
9.6458622438e+02
9.5440322839e+02
9.4255389415e+02
9.2907345700e+02
9.1404790273e+02
8.9760416603e+02
8.7989846128e+02
8.6110459724e+02
8.4140362216e+02
8.2097554516e+02
7.9999335679e+02
7.7861920667e+02
7.5700239838e+02
7.3527879614e+02
7.1357125762e+02
6.9199077093e+02
6.7063805096e+02
6.4960542363e+02
6.2897888589e+02
6.0884027097e+02
5.8926946890e+02
5.7034664867e+02
5.5215439314e+02
5.3477958286e+02
5.1831473781e+02
5.0285834202e+02
4.8851344808e+02
4.7538364825e+02
4.6356544394e+02
4.5313637129e+02
4.4413918200e+02
4.3656395119e+02
4.3033166274e+02
4.2528343213e+02
4.2117815950e+02
4.1770232209e+02
4.1447975502e+02
4.1109430714e+02
4.0711599087e+02
4.0213810209e+02
3.9582770522e+02
3.8798272589e+02
3.7857986809e+02
3.6779506446e+02
3.5598545630e+02
3.4363547389e+02
3.3128185740e+02
3.1943741743e+02
3.0853011465e+02
2.9886611011e+02
2.9061733520e+02
2.8382886305e+02
2.7843996724e+02
2.7431509631e+02
2.7128539244e+02
2.6920047803e+02
2.6796432504e+02
2.6745240589e+02
2.6711265450e+02
2.6518525452e+02
2.5821221900e+02
2.4235893121e+02
2.1693984390e+02
1.8690009780e+02
1.6021169736e+02
1.4205757582e+02
1.3227783549e+02
1.2786154970e+02
1.2607634301e+02
1.2539594906e+02
1.2514393639e+02
1.2505191619e+02
1.2501860120e+02
1.2500662025e+02
1.2500233981e+02
1.2500082243e+02
1.2500029266e+02
1.2500013666e+02
9.9999970670e+02
9.9999953815e+02
9.9999903172e+02
9.9999793654e+02
9.9999566959e+02
9.9999110890e+02
9.9998216873e+02
9.9996509247e+02
9.9993332734e+02
9.9987581725e+02
9.9977454815e+02
9.9960122989e+02
9.9931313218e+02
9.9884833223e+02
9.9812097366e+02
9.9701752170e+02
9.9539530472e+02
9.9308468234e+02
9.8989581531e+02
9.8563018222e+02
9.8009583951e+02
9.7312429898e+02
9.6458622438e+02
9.5440322839e+02
9.4255389415e+02
9.2907345700e+02
9.1404790273e+02
8.9760416603e+02
8.7989846128e+02
8.6110459724e+02
8.4140362216e+02
8.2097554516e+02
7.9999335679e+02
7.7861920667e+02
7.5700239838e+02
7.3527879614e+02
7.1357125762e+02
6.9199077093e+02
6.7063805096e+02
6.4960542363e+02
6.2897888589e+02
6.0884027097e+02
5.8926946890e+02
5.7034664867e+02
5.5215439314e+02
5.3477958286e+02
5.1831473781e+02
5.0285834202e+02
4.8851344808e+02
4.7538364825e+02
4.6356544394e+02
4.5313637129e+02
4.4413918200e+02
4.3656395119e+02
4.3033166274e+02
4.2528343213e+02
4.2117815950e+02
4.1770232209e+02
4.1447975502e+02
4.1109430714e+02
4.0711599087e+02
4.0213810209e+02
3.9582770522e+02
3.8798272589e+02
3.7857986809e+02
3.6779506446e+02
3.5598545630e+02
3.4363547389e+02
3.3128185740e+02
3.1943741743e+02
3.0853011465e+02
2.9886611011e+02
2.9061733520e+02
2.8382886305e+02
2.7843996724e+02
2.7431509631e+02
2.7128539244e+02
2.6920047803e+02
2.6796432504e+02
2.6745240589e+02
2.6711265450e+02
2.6518525452e+02
2.5821221900e+02
2.4235893121e+02
2.1693984390e+02
1.8690009780e+02
1.6021169736e+02
1.4205757582e+02
1.3227783549e+02
1.2786154970e+02
1.2607634301e+02
1.2539594906e+02
1.2514393639e+02
1.2505191619e+02
1.2501860120e+02
1.2500662025e+02
1.2500233981e+02
1.2500082243e+02
1.2500029266e+02
1.2500013666e+02
9.9999970670e+02
9.9999953815e+02
9.9999903172e+02
9.9999793654e+02
9.9999566959e+02
9.9999110890e+02
9.9998216873e+02
9.9996509247e+02
9.9993332734e+02
9.9987581725e+02
9.9977454815e+02
9.9960122989e+02
9.9931313218e+02
9.9884833223e+02
9.9812097366e+02
9.9701752170e+02
9.9539530472e+02
9.9308468234e+02
9.8989581531e+02
9.8563018222e+02
9.8009583951e+02
9.7312429898e+02
9.6458622438e+02
9.5440322839e+02
9.4255389415e+02
9.2907345700e+02
9.1404790273e+02
8.9760416603e+02
8.7989846128e+02
8.6110459724e+02
8.4140362216e+02
8.2097554516e+02
7.9999335679e+02
7.7861920667e+02
7.5700239838e+02
7.3527879614e+02
7.1357125762e+02
6.9199077093e+02
6.7063805096e+02
6.4960542363e+02
6.2897888589e+02
6.0884027097e+02
5.8926946890e+02
5.7034664867e+02
5.5215439314e+02
5.3477958286e+02
5.1831473781e+02
5.0285834202e+02
4.8851344808e+02
4.7538364825e+02
4.6356544394e+02
4.5313637129e+02
4.4413918200e+02
4.3656395119e+02
4.3033166274e+02
4.2528343213e+02
4.2117815950e+02
4.1770232209e+02
4.1447975502e+02
4.1109430714e+02
4.0711599087e+02
4.0213810209e+02
3.9582770522e+02
3.8798272589e+02
3.7857986809e+02
3.6779506446e+02
3.5598545630e+02
3.4363547389e+02
3.3128185740e+02
3.1943741743e+02
3.0853011465e+02
2.9886611011e+02
2.9061733520e+02
2.8382886305e+02
2.7843996724e+02
2.7431509631e+02
2.7128539244e+02
2.6920047803e+02
2.6796432504e+02
2.6745240589e+02
2.6711265450e+02
2.6518525452e+02
2.5821221900e+02
2.4235893121e+02
2.1693984390e+02
1.8690009780e+02
1.6021169736e+02
1.4205757582e+02
1.3227783549e+02
1.2786154970e+02
1.2607634301e+02
1.2539594906e+02
1.2514393639e+02
1.2505191619e+02
1.2501860120e+02
1.2500662025e+02
1.2500233981e+02
1.2500082243e+02
1.2500029266e+02
1.2500013666e+02
9.9999970670e+02
9.9999953815e+02
9.9999903172e+02
9.9999793654e+02
9.9999566959e+02
9.9999110890e+02
9.9998216873e+02
9.9996509247e+02
9.9993332734e+02
9.9987581725e+02
9.9977454815e+02
9.9960122989e+02
9.9931313218e+02
9.9884833223e+02
9.9812097366e+02
9.9701752170e+02
9.9539530472e+02
9.9308468234e+02
9.8989581531e+02
9.8563018222e+02
9.8009583951e+02
9.7312429898e+02
9.6458622438e+02
9.5440322839e+02
9.4255389415e+02
9.2907345700e+02
9.1404790273e+02
8.9760416603e+02
8.7989846128e+02
8.6110459724e+02
8.4140362216e+02
8.2097554516e+02
7.9999335679e+02
7.7861920667e+02
7.5700239838e+02
7.3527879614e+02
7.1357125762e+02
6.9199077093e+02
6.7063805096e+02
6.4960542363e+02
6.2897888589e+02
6.0884027097e+02
5.8926946890e+02
5.7034664867e+02
5.5215439314e+02
5.3477958286e+02
5.1831473781e+02
5.0285834202e+02
4.8851344808e+02
4.7538364825e+02
4.6356544394e+02
4.5313637129e+02
4.4413918200e+02
4.3656395119e+02
4.3033166274e+02
4.2528343213e+02
4.2117815950e+02
4.1770232209e+02
4.1447975502e+02
4.1109430714e+02
4.0711599087e+02
4.0213810209e+02
3.9582770522e+02
3.8798272589e+02
3.7857986809e+02
3.6779506446e+02
3.5598545630e+02
3.4363547389e+02
3.3128185740e+02
3.1943741743e+02
3.0853011465e+02
2.9886611011e+02
2.9061733520e+02
2.8382886305e+02
2.7843996724e+02
2.7431509631e+02
2.7128539244e+02
2.6920047803e+02
2.6796432504e+02
2.6745240589e+02
2.6711265450e+02
2.6518525452e+02
2.5821221900e+02
2.4235893121e+02
2.1693984390e+02
1.8690009780e+02
1.6021169736e+02
1.4205757582e+02
1.3227783549e+02
1.2786154970e+02
1.2607634301e+02
1.2539594906e+02
1.2514393639e+02
1.2505191619e+02
1.2501860120e+02
1.2500662025e+02
1.2500233981e+02
1.2500082243e+02
1.2500029266e+02
1.2500013666e+02
9.9999970670e+02
9.9999953815e+02
9.9999903172e+02
9.9999793654e+02
9.9999566959e+02
9.9999110890e+02
9.9998216873e+02
9.9996509247e+02
9.9993332734e+02
9.9987581725e+02
9.9977454815e+02
9.9960122989e+02
9.9931313218e+02
9.9884833223e+02
9.9812097366e+02
9.9701752170e+02
9.9539530472e+02
9.9308468234e+02
9.8989581531e+02
9.8563018222e+02
9.8009583951e+02
9.7312429898e+02
9.6458622438e+02
9.5440322839e+02
9.4255389415e+02
9.2907345700e+02
9.1404790273e+02
8.9760416603e+02
8.7989846128e+02
8.6110459724e+02
8.4140362216e+02
8.2097554516e+02
7.9999335679e+02
7.7861920667e+02
7.5700239838e+02
7.3527879614e+02
7.1357125762e+02
6.9199077093e+02
6.7063805096e+02
6.4960542363e+02
6.2897888589e+02
6.0884027097e+02
5.8926946890e+02
5.7034664867e+02
5.5215439314e+02
5.3477958286e+02
5.1831473781e+02
5.0285834202e+02
4.8851344808e+02
4.7538364825e+02
4.6356544394e+02
4.5313637129e+02
4.4413918200e+02
4.3656395119e+02
4.3033166274e+02
4.2528343213e+02
4.2117815950e+02
4.1770232209e+02
4.1447975502e+02
4.1109430714e+02
4.0711599087e+02
4.0213810209e+02
3.9582770522e+02
3.8798272589e+02
3.7857986809e+02
3.6779506446e+02
3.5598545630e+02
3.4363547389e+02
3.3128185740e+02
3.1943741743e+02
3.0853011465e+02
2.9886611011e+02
2.9061733520e+02
2.8382886305e+02
2.7843996724e+02
2.7431509631e+02
2.7128539244e+02
2.6920047803e+02
2.6796432504e+02
2.6745240589e+02
2.6711265450e+02
2.6518525452e+02
2.5821221900e+02
2.4235893121e+02
2.1693984390e+02
1.8690009780e+02
1.6021169736e+02
1.4205757582e+02
1.3227783549e+02
1.2786154970e+02
1.2607634301e+02
1.2539594906e+02
1.2514393639e+02
1.2505191619e+02
1.2501860120e+02
1.2500662025e+02
1.2500233981e+02
1.2500082243e+02
1.2500029266e+02
1.2500013666e+02
9.9999970670e+02
9.9999953815e+02
9.9999903172e+02
9.9999793654e+02
9.9999566959e+02
9.9999110890e+02
9.9998216873e+02
9.9996509247e+02
9.9993332734e+02
9.9987581725e+02
9.9977454815e+02
9.9960122989e+02
9.9931313218e+02
9.9884833223e+02
9.9812097366e+02
9.9701752170e+02
9.9539530472e+02
9.9308468234e+02
9.8989581531e+02
9.8563018222e+02
9.8009583951e+02
9.7312429898e+02
9.6458622438e+02
9.5440322839e+02
9.4255389415e+02
9.2907345700e+02
9.1404790273e+02
8.9760416603e+02
8.7989846128e+02
8.6110459724e+02
8.4140362216e+02
8.2097554516e+02
7.9999335679e+02
7.7861920667e+02
7.5700239838e+02
7.3527879614e+02
7.1357125762e+02
6.9199077093e+02
6.7063805096e+02
6.4960542363e+02
6.2897888589e+02
6.0884027097e+02
5.8926946890e+02
5.7034664867e+02
5.5215439314e+02
5.3477958286e+02
5.1831473781e+02
5.0285834202e+02
4.8851344808e+02
4.7538364825e+02
4.6356544394e+02
4.5313637129e+02
4.4413918200e+02
4.3656395119e+02
4.3033166274e+02
4.2528343213e+02
4.2117815950e+02
4.1770232209e+02
4.1447975502e+02
4.1109430714e+02
4.0711599087e+02
4.0213810209e+02
3.9582770522e+02
3.8798272589e+02
3.7857986809e+02
3.6779506446e+02
3.5598545630e+02
3.4363547389e+02
3.3128185740e+02
3.1943741743e+02
3.0853011465e+02
2.9886611011e+02
2.9061733520e+02
2.8382886305e+02
2.7843996724e+02
2.7431509631e+02
2.7128539244e+02
2.6920047803e+02
2.6796432504e+02
2.6745240589e+02
2.6711265450e+02
2.6518525452e+02
2.5821221900e+02
2.4235893121e+02
2.1693984390e+02
1.8690009780e+02
1.6021169736e+02
1.4205757582e+02
1.3227783549e+02
1.2786154970e+02
1.2607634301e+02
1.2539594906e+02
1.2514393639e+02
1.2505191619e+02
1.2501860120e+02
1.2500662025e+02
1.2500233981e+02
1.2500082243e+02
1.2500029266e+02
1.2500013666e+02
9.9999970670e+02
9.9999953815e+02
9.9999903172e+02
9.9999793654e+02
9.9999566959e+02
9.9999110890e+02
9.9998216873e+02
9.9996509247e+02
9.9993332734e+02
9.9987581725e+02
9.9977454815e+02
9.9960122989e+02
9.9931313218e+02
9.9884833223e+02
9.9812097366e+02
9.9701752170e+02
9.9539530472e+02
9.9308468234e+02
9.8989581531e+02
9.8563018222e+02
9.8009583951e+02
9.7312429898e+02
9.6458622438e+02
9.5440322839e+02
9.4255389415e+02
9.2907345700e+02
9.1404790273e+02
8.9760416603e+02
8.7989846128e+02
8.6110459724e+02
8.4140362216e+02
8.2097554516e+02
7.9999335679e+02
7.7861920667e+02
7.5700239838e+02
7.3527879614e+02
7.1357125762e+02
6.9199077093e+02
6.7063805096e+02
6.4960542363e+02
6.2897888589e+02
6.0884027097e+02
5.8926946890e+02
5.7034664867e+02
5.5215439314e+02
5.3477958286e+02
5.1831473781e+02
5.0285834202e+02
4.8851344808e+02
4.7538364825e+02
4.6356544394e+02
4.5313637129e+02
4.4413918200e+02
4.3656395119e+02
4.3033166274e+02
4.2528343213e+02
4.2117815950e+02
4.1770232209e+02
4.1447975502e+02
4.1109430714e+02
4.0711599087e+02
4.0213810209e+02
3.9582770522e+02
3.8798272589e+02
3.7857986809e+02
3.6779506446e+02
3.5598545630e+02
3.4363547389e+02
3.3128185740e+02
3.1943741743e+02
3.0853011465e+02
2.9886611011e+02
2.9061733520e+02
2.8382886305e+02
2.7843996724e+02
2.7431509631e+02
2.7128539244e+02
2.6920047803e+02
2.6796432504e+02
2.6745240589e+02
2.6711265450e+02
2.6518525452e+02
2.5821221900e+02
2.4235893121e+02
2.1693984390e+02
1.8690009780e+02
1.6021169736e+02
1.4205757582e+02
1.3227783549e+02
1.2786154970e+02
1.2607634301e+02
1.2539594906e+02
1.2514393639e+02
1.2505191619e+02
1.2501860120e+02
1.2500662025e+02
1.2500233981e+02
1.2500082243e+02
1.2500029266e+02
1.2500013666e+02
9.9999970670e+02
9.9999953815e+02
9.9999903172e+02
9.9999793654e+02
9.9999566959e+02
9.9999110890e+02
9.9998216873e+02
9.9996509247e+02
9.9993332734e+02
9.9987581725e+02
9.9977454815e+02
9.9960122989e+02
9.9931313218e+02
9.9884833223e+02
9.9812097366e+02
9.9701752170e+02
9.9539530472e+02
9.9308468234e+02
9.8989581531e+02
9.8563018222e+02
9.8009583951e+02
9.7312429898e+02
9.6458622438e+02
9.5440322839e+02
9.4255389415e+02
9.2907345700e+02
9.1404790273e+02
8.9760416603e+02
8.7989846128e+02
8.6110459724e+02
8.4140362216e+02
8.2097554516e+02
7.9999335679e+02
7.7861920667e+02
7.5700239838e+02
7.3527879614e+02
7.1357125762e+02
6.9199077093e+02
6.7063805096e+02
6.4960542363e+02
6.2897888589e+02
6.0884027097e+02
5.8926946890e+02
5.7034664867e+02
5.5215439314e+02
5.3477958286e+02
5.1831473781e+02
5.0285834202e+02
4.8851344808e+02
4.7538364825e+02
4.6356544394e+02
4.5313637129e+02
4.4413918200e+02
4.3656395119e+02
4.3033166274e+02
4.2528343213e+02
4.2117815950e+02
4.1770232209e+02
4.1447975502e+02
4.1109430714e+02
4.0711599087e+02
4.0213810209e+02
3.9582770522e+02
3.8798272589e+02
3.7857986809e+02
3.6779506446e+02
3.5598545630e+02
3.4363547389e+02
3.3128185740e+02
3.1943741743e+02
3.0853011465e+02
2.9886611011e+02
2.9061733520e+02
2.8382886305e+02
2.7843996724e+02
2.7431509631e+02
2.7128539244e+02
2.6920047803e+02
2.6796432504e+02
2.6745240589e+02
2.6711265450e+02
2.6518525452e+02
2.5821221900e+02
2.4235893121e+02
2.1693984390e+02
1.8690009780e+02
1.6021169736e+02
1.4205757582e+02
1.3227783549e+02
1.2786154970e+02
1.2607634301e+02
1.2539594906e+02
1.2514393639e+02
1.2505191619e+02
1.2501860120e+02
1.2500662025e+02
1.2500233981e+02
1.2500082243e+02
1.2500029266e+02
1.2500013666e+02

SCALARS molarDensity float
LOOKUP_TABLE default
1.2977620326e+05
1.2977618139e+05
1.2977611567e+05
1.2977597354e+05
1.2977567934e+05
1.2977508747e+05
1.2977392725e+05
1.2977171116e+05
1.2976758880e+05
1.2976012536e+05
1.2974698303e+05
1.2972449044e+05
1.2968710220e+05
1.2962678221e+05
1.2953238835e+05
1.2938918650e+05
1.2917866128e+05
1.2887879739e+05
1.2846495822e+05
1.2791138039e+05
1.2719315419e+05
1.2628841387e+05
1.2518037464e+05
1.2385886369e+05
1.2232110163e+05
1.2057166117e+05
1.1862170121e+05
1.1648769487e+05
1.1418991505e+05
1.1175091802e+05
1.0919419952e+05
1.0654312047e+05
1.0382013093e+05
1.0104627407e+05
9.8240925938e+04
9.5421718490e+04
9.2604595733e+04
8.9803961284e+04
8.7032885544e+04
8.4303350224e+04
8.1626515685e+04
7.9013001935e+04
7.6473176802e+04
7.4017444317e+04
7.1656521773e+04
6.9401684201e+04
6.7264938498e+04
6.5259065547e+04
6.3397439129e+04
6.1693503059e+04
6.0159780924e+04
5.8806335074e+04
5.7638713666e+04
5.6655628684e+04
5.5846825714e+04
5.5191685321e+04
5.4658918469e+04
5.4207837355e+04
5.3789624713e+04
5.3350274012e+04
5.2833983079e+04
5.2187971384e+04
5.1369031796e+04
5.0350939866e+04
4.9130672323e+04
4.7731061044e+04
4.6198454486e+04
4.4595720187e+04
4.2992514273e+04
4.1455387374e+04
4.0039878616e+04
3.8785720431e+04
3.7715225427e+04
3.6834243027e+04
3.6134892384e+04
3.5599582138e+04
3.5206398558e+04
3.4935826202e+04
3.4775402914e+04
3.4708967970e+04
3.4664876311e+04
3.4414745587e+04
3.3509811246e+04
3.1452431144e+04
2.8153637536e+04
2.4255192197e+04
2.0791671900e+04
1.8435698242e+04
1.7166520301e+04
1.6593391330e+04
1.6361713917e+04
1.6273414946e+04
1.6240709690e+04
1.6228767653e+04
1.6224444159e+04
1.6222889317e+04
1.6222333817e+04
1.6222136897e+04
1.6222068146e+04
1.6222047901e+04
1.2977620326e+05
1.2977618139e+05
1.2977611567e+05
1.2977597354e+05
1.2977567934e+05
1.2977508747e+05
1.2977392725e+05
1.2977171116e+05
1.2976758880e+05
1.2976012536e+05
1.2974698303e+05
1.2972449044e+05
1.2968710220e+05
1.2962678221e+05
1.2953238835e+05
1.2938918650e+05
1.2917866128e+05
1.2887879739e+05
1.2846495822e+05
1.2791138039e+05
1.2719315419e+05
1.2628841387e+05
1.2518037464e+05
1.2385886369e+05
1.2232110163e+05
1.2057166117e+05
1.1862170121e+05
1.1648769487e+05
1.1418991505e+05
1.1175091802e+05
1.0919419952e+05
1.0654312047e+05
1.0382013093e+05
1.0104627407e+05
9.8240925938e+04
9.5421718490e+04
9.2604595733e+04
8.9803961284e+04
8.7032885544e+04
8.4303350224e+04
8.1626515685e+04
7.9013001935e+04
7.6473176802e+04
7.4017444317e+04
7.1656521773e+04
6.9401684201e+04
6.7264938498e+04
6.5259065547e+04
6.3397439129e+04
6.1693503059e+04
6.0159780924e+04
5.8806335074e+04
5.7638713666e+04
5.6655628684e+04
5.5846825714e+04
5.5191685321e+04
5.4658918469e+04
5.4207837355e+04
5.3789624713e+04
5.3350274012e+04
5.2833983079e+04
5.2187971384e+04
5.1369031796e+04
5.0350939866e+04
4.9130672323e+04
4.7731061044e+04
4.6198454486e+04
4.4595720187e+04
4.2992514273e+04