# vtk DataFile Version 2.0
Blank
ASCII
DATASET STRUCTURED_GRID
DIMENSIONS 101 11 2
POINTS 2222 float
0.0000000000e+00 0.0000000000e+00 0.0000000000e+00
1.0000000000e-02 0.0000000000e+00 0.0000000000e+00
2.0000000000e-02 0.0000000000e+00 0.0000000000e+00
3.0000000000e-02 0.0000000000e+00 0.0000000000e+00
4.0000000000e-02 0.0000000000e+00 0.0000000000e+00
5.0000000000e-02 0.0000000000e+00 0.0000000000e+00
6.0000000000e-02 0.0000000000e+00 0.0000000000e+00
7.0000000000e-02 0.0000000000e+00 0.0000000000e+00
8.0000000000e-02 0.0000000000e+00 0.0000000000e+00
9.0000000000e-02 0.0000000000e+00 0.0000000000e+00
1.0000000000e-01 0.0000000000e+00 0.0000000000e+00
1.1000000000e-01 0.0000000000e+00 0.0000000000e+00
1.2000000000e-01 0.0000000000e+00 0.0000000000e+00
1.3000000000e-01 0.0000000000e+00 0.0000000000e+00
1.4000000000e-01 0.0000000000e+00 0.0000000000e+00
1.5000000000e-01 0.0000000000e+00 0.0000000000e+00
1.6000000000e-01 0.0000000000e+00 0.0000000000e+00
1.7000000000e-01 0.0000000000e+00 0.0000000000e+00
1.8000000000e-01 0.0000000000e+00 0.0000000000e+00
1.9000000000e-01 0.0000000000e+00 0.0000000000e+00
2.0000000000e-01 0.0000000000e+00 0.0000000000e+00
2.1000000000e-01 0.0000000000e+00 0.0000000000e+00
2.2000000000e-01 0.0000000000e+00 0.0000000000e+00
2.3000000000e-01 0.0000000000e+00 0.0000000000e+00
2.4000000000e-01 0.0000000000e+00 0.0000000000e+00
2.5000000000e-01 0.0000000000e+00 0.0000000000e+00
2.6000000000e-01 0.0000000000e+00 0.0000000000e+00
2.7000000000e-01 0.0000000000e+00 0.0000000000e+00
2.8000000000e-01 0.0000000000e+00 0.0000000000e+00
2.9000000000e-01 0.0000000000e+00 0.0000000000e+00
3.0000000000e-01 0.0000000000e+00 0.0000000000e+00
3.1000000000e-01 0.0000000000e+00 0.0000000000e+00
3.2000000000e-01 0.0000000000e+00 0.0000000000e+00
3.3000000000e-01 0.0000000000e+00 0.0000000000e+00
3.4000000000e-01 0.0000000000e+00 0.0000000000e+00
3.5000000000e-01 0.0000000000e+00 0.0000000000e+00
3.6000000000e-01 0.0000000000e+00 0.0000000000e+00
3.7000000000e-01 0.0000000000e+00 0.0000000000e+00
3.8000000000e-01 0.0000000000e+00 0.0000000000e+00
3.9000000000e-01 0.0000000000e+00 0.0000000000e+00
4.0000000000e-01 0.0000000000e+00 0.0000000000e+00
4.1000000000e-01 0.0000000000e+00 0.0000000000e+00
4.2000000000e-01 0.0000000000e+00 0.0000000000e+00
4.3000000000e-01 0.0000000000e+00 0.0000000000e+00
4.4000000000e-01 0.0000000000e+00 0.0000000000e+00
4.5000000000e-01 0.0000000000e+00 0.0000000000e+00
4.6000000000e-01 0.0000000000e+00 0.0000000000e+00
4.7000000000e-01 0.0000000000e+00 0.0000000000e+00
4.8000000000e-01 0.0000000000e+00 0.0000000000e+00
4.9000000000e-01 0.0000000000e+00 0.0000000000e+00
5.0000000000e-01 0.0000000000e+00 0.0000000000e+00
5.1000000000e-01 0.0000000000e+00 0.0000000000e+00
5.2000000000e-01 0.0000000000e+00 0.0000000000e+00
5.3000000000e-01 0.0000000000e+00 0.0000000000e+00
5.4000000000e-01 0.0000000000e+00 0.0000000000e+00
5.5000000000e-01 0.0000000000e+00 0.0000000000e+00
5.6000000000e-01 0.0000000000e+00 0.0000000000e+00
5.7000000000e-01 0.0000000000e+00 0.0000000000e+00
5.8000000000e-01 0.0000000000e+00 0.0000000000e+00
5.9000000000e-01 0.0000000000e+00 0.0000000000e+00
6.0000000000e-01 0.0000000000e+00 0.0000000000e+00
6.1000000000e-01 0.0000000000e+00 0.0000000000e+00
6.2000000000e-01 0.0000000000e+00 0.0000000000e+00
6.3000000000e-01 0.0000000000e+00 0.0000000000e+00
6.4000000000e-01 0.0000000000e+00 0.0000000000e+00
6.5000000000e-01 0.0000000000e+00 0.0000000000e+00
6.6000000000e-01 0.0000000000e+00 0.0000000000e+00
6.7000000000e-01 0.0000000000e+00 0.0000000000e+00
6.8000000000e-01 0.0000000000e+00 0.0000000000e+00
6.9000000000e-01 0.0000000000e+00 0.0000000000e+00
7.0000000000e-01 0.0000000000e+00 0.0000000000e+00
7.1000000000e-01 0.0000000000e+00 0.0000000000e+00
7.2000000000e-01 0.0000000000e+00 0.0000000000e+00
7.3000000000e-01 0.0000000000e+00 0.0000000000e+00
7.4000000000e-01 0.0000000000e+00 0.0000000000e+00
7.5000000000e-01 0.0000000000e+00 0.0000000000e+00
7.6000000000e-01 0.0000000000e+00 0.0000000000e+00
7.7000000000e-01 0.0000000000e+00 0.0000000000e+00
7.8000000000e-01 0.0000000000e+00 0.0000000000e+00
7.9000000000e-01 0.0000000000e+00 0.0000000000e+00
8.0000000000e-01 0.0000000000e+00 0.0000000000e+00
8.1000000000e-01 0.0000000000e+00 0.0000000000e+00
8.2000000000e-01 0.0000000000e+00 0.0000000000e+00
8.3000000000e-01 0.0000000000e+00 0.0000000000e+00
8.4000000000e-01 0.0000000000e+00 0.0000000000e+00
8.5000000000e-01 0.0000000000e+00 0.0000000000e+00
8.6000000000e-01 0.0000000000e+00 0.0000000000e+00
8.7000000000e-01 0.0000000000e+00 0.0000000000e+00
8.8000000000e-01 0.0000000000e+00 0.0000000000e+00
8.9000000000e-01 0.0000000000e+00 0.0000000000e+00
9.0000000000e-01 0.0000000000e+00 0.0000000000e+00
9.1000000000e-01 0.0000000000e+00 0.0000000000e+00
9.2000000000e-01 0.0000000000e+00 0.0000000000e+00
9.3000000000e-01 0.0000000000e+00 0.0000000000e+00
9.4000000000e-01 0.0000000000e+00 0.0000000000e+00
9.5000000000e-01 0.0000000000e+00 0.0000000000e+00
9.6000000000e-01 0.0000000000e+00 0.0000000000e+00
9.7000000000e-01 0.0000000000e+00 0.0000000000e+00
9.8000000000e-01 0.0000000000e+00 0.0000000000e+00
9.9000000000e-01 0.0000000000e+00 0.0000000000e+00
1.0000000000e+00 0.0000000000e+00 0.0000000000e+00
0.0000000000e+00 1.0000000000e-03 0.0000000000e+00
1.0000000000e-02 1.0000000000e-03 0.0000000000e+00
2.0000000000e-02 1.0000000000e-03 0.0000000000e+00
3.0000000000e-02 1.0000000000e-03 0.0000000000e+00
4.0000000000e-02 1.0000000000e-03 0.0000000000e+00
5.0000000000e-02 1.0000000000e-03 0.0000000000e+00
6.0000000000e-02 1.0000000000e-03 0.0000000000e+00
7.0000000000e-02 1.0000000000e-03 0.0000000000e+00
8.0000000000e-02 1.0000000000e-03 0.0000000000e+00
9.0000000000e-02 1.0000000000e-03 0.0000000000e+00
1.0000000000e-01 1.0000000000e-03 0.0000000000e+00
1.1000000000e-01 1.0000000000e-03 0.0000000000e+00
1.2000000000e-01 1.0000000000e-03 0.0000000000e+00
1.3000000000e-01 1.0000000000e-03 0.0000000000e+00
1.4000000000e-01 1.0000000000e-03 0.0000000000e+00
1.5000000000e-01 1.0000000000e-03 0.0000000000e+00
1.6000000000e-01 1.0000000000e-03 0.0000000000e+00
1.7000000000e-01 1.0000000000e-03 0.0000000000e+00
1.8000000000e-01 1.0000000000e-03 0.0000000000e+00
1.9000000000e-01 1.0000000000e-03 0.0000000000e+00
2.0000000000e-01 1.0000000000e-03 0.0000000000e+00
2.1000000000e-01 1.0000000000e-03 0.0000000000e+00
2.2000000000e-01 1.0000000000e-03 0.0000000000e+00
2.3000000000e-01 1.0000000000e-03 0.0000000000e+00
2.4000000000e-01 1.0000000000e-03 0.0000000000e+00
2.5000000000e-01 1.0000000000e-03 0.0000000000e+00
2.6000000000e-01 1.0000000000e-03 0.0000000000e+00
2.7000000000e-01 1.0000000000e-03 0.0000000000e+00
2.8000000000e-01 1.0000000000e-03 0.0000000000e+00
2.9000000000e-01 1.0000000000e-03 0.0000000000e+00
3.0000000000e-01 1.0000000000e-03 0.0000000000e+00
3.1000000000e-01 1.0000000000e-03 0.0000000000e+00
3.2000000000e-01 1.0000000000e-03 0.0000000000e+00
3.3000000000e-01 1.0000000000e-03 0.0000000000e+00
3.4000000000e-01 1.0000000000e-03 0.0000000000e+00
3.5000000000e-01 1.0000000000e-03 0.0000000000e+00
3.6000000000e-01 1.0000000000e-03 0.0000000000e+00
3.7000000000e-01 1.0000000000e-03 0.0000000000e+00
3.8000000000e-01 1.0000000000e-03 0.0000000000e+00
3.9000000000e-01 1.0000000000e-03 0.0000000000e+00
4.0000000000e-01 1.0000000000e-03 0.0000000000e+00
4.1000000000e-01 1.0000000000e-03 0.0000000000e+00
4.2000000000e-01 1.0000000000e-03 0.0000000000e+00
4.3000000000e-01 1.0000000000e-03 0.0000000000e+00
4.4000000000e-01 1.0000000000e-03 0.0000000000e+00
4.5000000000e-01 1.0000000000e-03 0.0000000000e+00
4.6000000000e-01 1.0000000000e-03 0.0000000000e+00
4.7000000000e-01 1.0000000000e-03 0.0000000000e+00
4.8000000000e-01 1.0000000000e-03 0.0000000000e+00
4.9000000000e-01 1.0000000000e-03 0.0000000000e+00
5.0000000000e-01 1.0000000000e-03 0.0000000000e+00
5.1000000000e-01 1.0000000000e-03 0.0000000000e+00
5.2000000000e-01 1.0000000000e-03 0.0000000000e+00
5.3000000000e-01 1.0000000000e-03 0.0000000000e+00
5.4000000000e-01 1.0000000000e-03 0.0000000000e+00
5.5000000000e-01 1.0000000000e-03 0.0000000000e+00
5.6000000000e-01 1.0000000000e-03 0.0000000000e+00
5.7000000000e-01 1.0000000000e-03 0.0000000000e+00
5.8000000000e-01 1.0000000000e-03 0.0000000000e+00
5.9000000000e-01 1.0000000000e-03 0.0000000000e+00
6.0000000000e-01 1.0000000000e-03 0.0000000000e+00
6.1000000000e-01 1.0000000000e-03 0.0000000000e+00
6.2000000000e-01 1.0000000000e-03 0.0000000000e+00
6.3000000000e-01 1.0000000000e-03 0.0000000000e+00
6.4000000000e-01 1.0000000000e-03 0.0000000000e+00
6.5000000000e-01 1.0000000000e-03 0.0000000000e+00
6.6000000000e-01 1.0000000000e-03 0.0000000000e+00
6.7000000000e-01 1.0000000000e-03 0.0000000000e+00
6.8000000000e-01 1.0000000000e-03 0.0000000000e+00
6.9000000000e-01 1.0000000000e-03 0.0000000000e+00
7.0000000000e-01 1.0000000000e-03 0.0000000000e+00
7.1000000000e-01 1.0000000000e-03 0.0000000000e+00
7.2000000000e-01 1.0000000000e-03 0.0000000000e+00
7.3000000000e-01 1.0000000000e-03 0.0000000000e+00
7.4000000000e-01 1.0000000000e-03 0.0000000000e+00
7.5000000000e-01 1.0000000000e-03 0.0000000000e+00
7.6000000000e-01 1.0000000000e-03 0.0000000000e+00
7.7000000000e-01 1.0000000000e-03 0.0000000000e+00
7.8000000000e-01 1.0000000000e-03 0.0000000000e+00
7.9000000000e-01 1.0000000000e-03 0.0000000000e+00
8.0000000000e-01 1.0000000000e-03 0.0000000000e+00
8.1000000000e-01 1.0000000000e-03 0.0000000000e+00
8.2000000000e-01 1.0000000000e-03 0.0000000000e+00
8.3000000000e-01 1.0000000000e-03 0.0000000000e+00
8.4000000000e-01 1.0000000000e-03 0.0000000000e+00
8.5000000000e-01 1.0000000000e-03 0.0000000000e+00
8.6000000000e-01 1.0000000000e-03 0.0000000000e+00
8.7000000000e-01 1.0000000000e-03 0.0000000000e+00
8.8000000000e-01 1.0000000000e-03 0.0000000000e+00
8.9000000000e-01 1.0000000000e-03 0.0000000000e+00
9.0000000000e-01 1.0000000000e-03 0.0000000000e+00
9.1000000000e-01 1.0000000000e-03 0.0000000000e+00
9.2000000000e-01 1.0000000000e-03 0.0000000000e+00
[...]
CELL_DATA 1000

SCALARS massDensity float
LOOKUP_TABLE default
9.9999999996e+02
9.9999999996e+02
9.9999999996e+02
9.9999999996e+02
9.9999999996e+02
9.9999999996e+02
9.9999999996e+02
9.9999999996e+02
9.9999999996e+02
9.9999999996e+02
9.9999999996e+02
9.9999999996e+02
9.9999999996e+02
9.9999999996e+02
9.9999999996e+02
9.9999999996e+02
9.9999999996e+02
9.9999999996e+02
9.9999999996e+02
9.9999999996e+02
9.9999999996e+02
9.9999999996e+02
9.9999999996e+02
9.9999999995e+02
9.9999999990e+02
9.9999999967e+02
9.9999999851e+02
9.9999999302e+02
9.9999996844e+02
9.9999986439e+02
9.9999944836e+02
9.9999788140e+02
9.9999233642e+02
9.9997395556e+02
9.9991706797e+02
9.9975329475e+02
9.9931651444e+02
9.9824209676e+02
9.9581524429e+02
9.9080223803e+02
9.8136225371e+02
9.6518161633e+02
9.3992035979e+02
9.0388725773e+02
8.5667383032e+02
7.9945844172e+02
7.3487523352e+02
6.6660499006e+02
5.9884710505e+02
5.3572340884e+02
4.8049106253e+02
4.3440775904e+02
3.9673153763e+02
3.6507797650e+02
3.3737662700e+02
3.1142594527e+02
2.8346216581e+02
2.4968889360e+02
2.1133290862e+02
1.7530116789e+02
1.4908885319e+02
1.3457391115e+02
1.2828377567e+02
1.2601575874e+02
1.2529177077e+02
1.2507891885e+02
1.2502021104e+02
1.2500491077e+02
1.2500113308e+02
1.2500024844e+02
1.2500005180e+02
1.2500001028e+02
1.2500000195e+02
1.2500000035e+02
1.2500000006e+02
1.2500000001e+02
1.2500000001e+02
1.2500000000e+02
1.2500000000e+02
1.2500000000e+02
1.2500000000e+02
1.2500000000e+02
1.2500000000e+02
1.2500000000e+02
1.2500000000e+02
1.2500000000e+02
1.2500000000e+02
1.2500000000e+02
1.2500000000e+02
1.2500000000e+02
1.2500000000e+02
1.2500000000e+02
1.2500000000e+02
1.2500000000e+02
1.2500000000e+02
1.2500000000e+02
1.2500000000e+02
1.2500000000e+02
1.2500000000e+02
1.2500000000e+02
9.9999999996e+02
9.9999999996e+02
9.9999999996e+02
9.9999999996e+02
9.9999999996e+02
9.9999999996e+02
9.9999999996e+02
9.9999999996e+02
9.9999999996e+02
9.9999999996e+02
9.9999999996e+02
9.9999999996e+02
9.9999999996e+02
9.9999999996e+02
9.9999999996e+02
9.9999999996e+02
9.9999999996e+02
9.9999999996e+02
9.9999999996e+02
9.9999999996e+02
9.9999999996e+02
9.9999999996e+02
9.9999999996e+02
9.9999999995e+02
9.9999999990e+02
9.9999999967e+02
9.9999999851e+02
9.9999999302e+02
9.9999996844e+02
9.9999986439e+02
9.9999944836e+02
9.9999788140e+02
9.9999233642e+02
9.9997395556e+02
9.9991706797e+02
9.9975329475e+02
9.9931651444e+02
9.9824209676e+02
9.9581524429e+02
9.9080223803e+02
9.8136225371e+02
9.6518161633e+02
9.3992035979e+02
9.0388725773e+02
8.5667383032e+02
7.9945844172e+02
7.3487523352e+02
6.6660499006e+02
5.9884710505e+02
5.3572340884e+02
4.8049106253e+02
4.3440775904e+02
3.9673153763e+02
3.6507797650e+02
3.3737662700e+02
3.1142594527e+02
2.8346216581e+02
2.4968889360e+02
2.1133290862e+02
1.7530116789e+02
1.4908885319e+02
1.3457391115e+02
1.2828377567e+02
1.2601575874e+02
1.2529177077e+02
1.2507891885e+02
1.2502021104e+02
1.2500491077e+02
1.2500113308e+02
1.2500024844e+02
1.2500005180e+02
1.2500001028e+02
1.2500000195e+02
1.2500000035e+02
1.2500000006e+02
1.2500000001e+02
1.2500000001e+02
1.2500000000e+02
1.2500000000e+02
1.2500000000e+02
1.2500000000e+02
1.2500000000e+02
1.2500000000e+02
1.2500000000e+02
1.2500000000e+02
1.2500000000e+02
1.2500000000e+02
1.2500000000e+02
1.2500000000e+02
1.2500000000e+02
1.2500000000e+02
1.2500000000e+02
1.2500000000e+02
1.2500000000e+02
1.2500000000e+02
1.2500000000e+02
1.2500000000e+02
1.2500000000e+02
1.2500000000e+02
1.2500000000e+02
9.9999999996e+02
9.9999999996e+02
9.9999999996e+02
9.9999999996e+02
9.9999999996e+02
9.9999999996e+02
9.9999999996e+02
9.9999999996e+02
9.9999999996e+02
9.9999999996e+02
9.9999999996e+02
9.9999999996e+02
9.9999999996e+02
9.9999999996e+02
9.9999999996e+02
9.9999999996e+02
9.9999999996e+02
9.9999999996e+02
9.9999999996e+02
9.9999999996e+02
9.9999999996e+02
9.9999999996e+02
9.9999999996e+02
9.9999999995e+02
9.9999999990e+02
9.9999999967e+02
9.9999999851e+02
9.9999999302e+02
9.9999996844e+02
9.9999986439e+02
9.9999944836e+02
9.9999788140e+02
9.9999233642e+02
9.9997395556e+02
9.9991706797e+02
9.9975329475e+02
9.9931651444e+02
9.9824209676e+02
9.9581524429e+02
9.9080223803e+02
9.8136225371e+02
9.6518161633e+02
9.3992035979e+02
9.0388725773e+02
8.5667383032e+02
7.9945844172e+02
7.3487523352e+02
6.6660499006e+02
5.9884710505e+02
5.3572340884e+02
4.8049106253e+02
4.3440775904e+02
3.9673153763e+02
3.6507797650e+02
3.3737662700e+02
3.1142594527e+02
2.8346216581e+02
2.4968889360e+02
2.1133290862e+02
1.7530116789e+02
1.4908885319e+02
1.3457391115e+02
1.2828377567e+02
1.2601575874e+02
1.2529177077e+02
1.2507891885e+02
1.2502021104e+02
1.2500491077e+02
1.2500113308e+02
1.2500024844e+02
1.2500005180e+02
1.2500001028e+02
1.2500000195e+02
1.2500000035e+02
1.2500000006e+02
1.2500000001e+02
1.2500000001e+02
1.2500000000e+02
1.2500000000e+02
1.2500000000e+02
1.2500000000e+02
1.2500000000e+02
1.2500000000e+02
1.2500000000e+02
1.2500000000e+02
1.2500000000e+02
1.2500000000e+02
1.2500000000e+02
1.2500000000e+02
1.2500000000e+02
1.2500000000e+02
1.2500000000e+02
1.2500000000e+02
1.2500000000e+02
1.2500000000e+02
1.2500000000e+02
1.2500000000e+02
1.2500000000e+02
1.2500000000e+02
1.2500000000e+02
9.9999999996e+02
9.9999999996e+02
9.9999999996e+02
9.9999999996e+02
9.9999999996e+02
9.9999999996e+02
9.9999999996e+02
9.9999999996e+02
9.9999999996e+02
9.9999999996e+02
9.9999999996e+02
9.9999999996e+02
9.9999999996e+02
9.9999999996e+02
9.9999999996e+02
9.9999999996e+02
9.9999999996e+02
9.9999999996e+02
9.9999999996e+02
9.9999999996e+02
9.9999999996e+02
9.9999999996e+02
9.9999999996e+02
9.9999999995e+02
9.9999999990e+02
9.9999999967e+02
9.9999999851e+02
9.9999999302e+02
9.9999996844e+02
9.9999986439e+02
9.9999944836e+02
9.9999788140e+02
9.9999233642e+02
9.9997395556e+02
9.9991706797e+02
9.9975329475e+02
9.9931651444e+02
9.9824209676e+02
9.9581524429e+02
9.9080223803e+02
9.8136225371e+02
9.6518161633e+02
9.3992035979e+02
9.0388725773e+02
8.5667383032e+02
7.9945844172e+02
7.3487523352e+02
6.6660499006e+02
5.9884710505e+02
5.3572340884e+02
4.8049106253e+02
4.3440775904e+02
3.9673153763e+02
3.6507797650e+02
3.3737662700e+02
3.1142594527e+02
2.8346216581e+02
2.4968889360e+02
2.1133290862e+02
1.7530116789e+02
1.4908885319e+02
1.3457391115e+02
1.2828377567e+02
1.2601575874e+02
1.2529177077e+02
1.2507891885e+02
1.2502021104e+02
1.2500491077e+02
1.2500113308e+02
1.2500024844e+02
1.2500005180e+02
1.2500001028e+02
1.2500000195e+02
1.2500000035e+02
1.2500000006e+02
1.2500000001e+02
1.2500000001e+02
1.2500000000e+02
1.2500000000e+02
1.2500000000e+02
1.2500000000e+02
1.2500000000e+02
1.2500000000e+02
1.2500000000e+02
1.2500000000e+02
1.2500000000e+02
1.2500000000e+02
1.2500000000e+02
1.2500000000e+02
1.2500000000e+02
1.2500000000e+02
1.2500000000e+02
1.2500000000e+02
1.2500000000e+02
1.2500000000e+02
1.2500000000e+02
1.2500000000e+02
1.2500000000e+02
1.2500000000e+02
1.2500000000e+02
9.9999999996e+02
9.9999999996e+02
9.9999999996e+02
9.9999999996e+02
9.9999999996e+02
9.9999999996e+02
9.9999999996e+02
9.9999999996e+02
9.9999999996e+02
9.9999999996e+02
9.9999999996e+02
9.9999999996e+02
9.9999999996e+02
9.9999999996e+02
9.9999999996e+02
9.9999999996e+02
9.9999999996e+02
9.9999999996e+02
9.9999999996e+02
9.9999999996e+02
9.9999999996e+02
9.9999999996e+02
9.9999999996e+02
9.9999999995e+02
9.9999999990e+02
9.9999999967e+02
9.9999999851e+02
9.9999999302e+02
9.9999996844e+02
9.9999986439e+02
9.9999944836e+02
9.9999788140e+02
9.9999233642e+02
9.9997395556e+02
9.9991706797e+02
9.9975329475e+02
9.9931651444e+02
9.9824209676e+02
9.9581524429e+02
9.9080223803e+02
9.8136225371e+02
9.6518161633e+02
9.3992035979e+02
9.0388725773e+02
8.5667383032e+02
7.9945844172e+02
7.3487523352e+02
6.6660499006e+02
5.9884710505e+02
5.3572340884e+02
4.8049106253e+02
4.3440775904e+02
3.9673153763e+02
3.6507797650e+02
3.3737662700e+02
3.1142594527e+02
2.8346216581e+02
2.4968889360e+02
2.1133290862e+02
1.7530116789e+02
1.4908885319e+02
1.3457391115e+02
1.2828377567e+02
1.2601575874e+02
1.2529177077e+02
1.2507891885e+02
1.2502021104e+02
1.2500491077e+02
1.2500113308e+02
1.2500024844e+02
1.2500005180e+02
1.2500001028e+02
1.2500000195e+02
1.2500000035e+02
1.2500000006e+02
1.2500000001e+02
1.2500000001e+02
1.2500000000e+02
1.2500000000e+02
1.2500000000e+02
1.2500000000e+02
1.2500000000e+02
1.2500000000e+02
1.2500000000e+02
1.2500000000e+02
1.2500000000e+02
1.2500000000e+02
1.2500000000e+02
1.2500000000e+02
1.2500000000e+02
1.2500000000e+02
1.2500000000e+02
1.2500000000e+02
1.2500000000e+02
1.2500000000e+02
1.2500000000e+02
1.2500000000e+02
1.2500000000e+02
1.2500000000e+02
1.2500000000e+02
9.9999999996e+02
9.9999999996e+02
9.9999999996e+02
9.9999999996e+02
9.9999999996e+02
9.9999999996e+02
9.9999999996e+02
9.9999999996e+02
9.9999999996e+02
9.9999999996e+02
9.9999999996e+02
9.9999999996e+02
9.9999999996e+02
9.9999999996e+02
9.9999999996e+02
9.9999999996e+02
9.9999999996e+02
9.9999999996e+02
9.9999999996e+02
9.9999999996e+02
9.9999999996e+02
9.9999999996e+02
9.9999999996e+02
9.9999999995e+02
9.9999999990e+02
9.9999999967e+02
9.9999999851e+02
9.9999999302e+02
9.9999996844e+02
9.9999986439e+02
9.9999944836e+02
9.9999788140e+02
9.9999233642e+02
9.9997395556e+02
9.9991706797e+02
9.9975329475e+02
9.9931651444e+02
9.9824209676e+02
9.9581524429e+02
9.9080223803e+02
9.8136225371e+02
9.6518161633e+02
9.3992035979e+02
9.0388725773e+02
8.5667383032e+02
7.9945844172e+02
7.3487523352e+02
6.6660499006e+02
5.9884710505e+02
5.3572340884e+02
4.8049106253e+02
4.3440775904e+02
3.9673153763e+02
3.6507797650e+02
3.3737662700e+02
3.1142594527e+02
2.8346216581e+02
2.4968889360e+02
2.1133290862e+02
1.7530116789e+02
1.4908885319e+02
1.3457391115e+02
1.2828377567e+02
1.2601575874e+02
1.2529177077e+02
1.2507891885e+02
1.2502021104e+02
1.2500491077e+02
1.2500113308e+02
1.2500024844e+02
1.2500005180e+02
1.2500001028e+02
1.2500000195e+02
1.2500000035e+02
1.2500000006e+02
1.2500000001e+02
1.2500000001e+02
1.2500000000e+02
1.2500000000e+02
1.2500000000e+02
1.2500000000e+02
1.2500000000e+02
1.2500000000e+02
1.2500000000e+02
1.2500000000e+02
1.2500000000e+02
1.2500000000e+02
1.2500000000e+02
1.2500000000e+02
1.2500000000e+02
1.2500000000e+02
1.2500000000e+02
1.2500000000e+02
1.2500000000e+02
1.2500000000e+02
1.2500000000e+02
1.2500000000e+02
1.2500000000e+02
1.2500000000e+02
1.2500000000e+02
9.9999999996e+02
9.9999999996e+02
9.9999999996e+02
9.9999999996e+02
9.9999999996e+02
9.9999999996e+02
9.9999999996e+02
9.9999999996e+02
9.9999999996e+02
9.9999999996e+02
9.9999999996e+02
9.9999999996e+02
9.9999999996e+02
9.9999999996e+02
9.9999999996e+02
9.9999999996e+02
9.9999999996e+02
9.9999999996e+02
9.9999999996e+02
9.9999999996e+02
9.9999999996e+02
9.9999999996e+02
9.9999999996e+02
9.9999999995e+02
9.9999999990e+02
9.9999999967e+02
9.9999999851e+02
9.9999999302e+02
9.9999996844e+02
9.9999986439e+02
9.9999944836e+02
9.9999788140e+02
9.9999233642e+02
9.9997395556e+02
9.9991706797e+02
9.9975329475e+02
9.9931651444e+02
9.9824209676e+02
9.9581524429e+02
9.9080223803e+02
9.8136225371e+02
9.6518161633e+02
9.3992035979e+02
9.0388725773e+02
8.5667383032e+02
7.9945844172e+02
7.3487523352e+02
6.6660499006e+02
5.9884710505e+02
5.3572340884e+02
4.8049106253e+02
4.3440775904e+02
3.9673153763e+02
3.6507797650e+02
3.3737662700e+02
3.1142594527e+02
2.8346216581e+02
2.4968889360e+02
2.1133290862e+02
1.7530116789e+02
1.4908885319e+02
1.3457391115e+02
1.2828377567e+02
1.2601575874e+02
1.2529177077e+02
1.2507891885e+02
1.2502021104e+02
1.2500491077e+02
1.2500113308e+02
1.2500024844e+02
1.2500005180e+02
1.2500001028e+02
1.2500000195e+02
1.2500000035e+02
1.2500000006e+02
1.2500000001e+02
1.2500000001e+02
1.2500000000e+02
1.2500000000e+02
1.2500000000e+02
1.2500000000e+02
1.2500000000e+02
1.2500000000e+02
1.2500000000e+02
1.2500000000e+02
1.2500000000e+02
1.2500000000e+02
1.2500000000e+02
1.2500000000e+02
1.2500000000e+02
1.2500000000e+02
1.2500000000e+02
1.2500000000e+02
1.2500000000e+02
1.2500000000e+02
1.2500000000e+02
1.2500000000e+02
1.2500000000e+02
1.2500000000e+02
1.2500000000e+02
9.9999999996e+02
9.9999999996e+02
9.9999999996e+02
9.9999999996e+02
9.9999999996e+02
9.9999999996e+02
9.9999999996e+02
9.9999999996e+02
9.9999999996e+02
9.9999999996e+02
9.9999999996e+02
9.9999999996e+02
9.9999999996e+02
9.9999999996e+02
9.9999999996e+02
9.9999999996e+02
9.9999999996e+02
9.9999999996e+02
9.9999999996e+02
9.9999999996e+02
9.9999999996e+02
9.9999999996e+02
9.9999999996e+02
9.9999999995e+02
9.9999999990e+02
9.9999999967e+02
9.9999999851e+02
9.9999999302e+02
9.9999996844e+02
9.9999986439e+02
9.9999944836e+02
9.9999788140e+02
9.9999233642e+02
9.9997395556e+02
9.9991706797e+02
9.9975329475e+02
9.9931651444e+02
9.9824209676e+02
9.9581524429e+02
9.9080223803e+02
9.8136225371e+02
9.6518161633e+02
9.3992035979e+02
9.0388725773e+02
8.5667383032e+02
7.9945844172e+02
7.3487523352e+02
6.6660499006e+02
5.9884710505e+02
5.3572340884e+02
4.8049106253e+02
4.3440775904e+02
3.9673153763e+02
3.6507797650e+02
3.3737662700e+02
3.1142594527e+02
2.8346216581e+02
2.4968889360e+02
2.1133290862e+02
1.7530116789e+02
1.4908885319e+02
1.3457391115e+02
1.2828377567e+02
1.2601575874e+02
1.2529177077e+02
1.2507891885e+02
1.2502021104e+02
1.2500491077e+02
1.2500113308e+02
1.2500024844e+02
1.2500005180e+02
1.2500001028e+02
1.2500000195e+02
1.2500000035e+02
1.2500000006e+02
1.2500000001e+02
1.2500000001e+02
1.2500000000e+02
1.2500000000e+02
1.2500000000e+02
1.2500000000e+02
1.2500000000e+02
1.2500000000e+02
1.2500000000e+02
1.2500000000e+02
1.2500000000e+02
1.2500000000e+02
1.2500000000e+02
1.2500000000e+02
1.2500000000e+02
1.2500000000e+02
1.2500000000e+02
1.2500000000e+02
1.2500000000e+02
1.2500000000e+02
1.2500000000e+02
1.2500000000e+02
1.2500000000e+02
1.2500000000e+02
1.2500000000e+02
9.9999999996e+02
9.9999999996e+02
9.9999999996e+02
9.9999999996e+02
9.9999999996e+02
9.9999999996e+02
9.9999999996e+02
9.9999999996e+02
9.9999999996e+02
9.9999999996e+02
9.9999999996e+02
9.9999999996e+02
9.9999999996e+02
9.9999999996e+02
9.9999999996e+02
9.9999999996e+02
9.9999999996e+02
9.9999999996e+02
9.9999999996e+02
9.9999999996e+02
9.9999999996e+02
9.9999999996e+02
9.9999999996e+02
9.9999999995e+02
9.9999999990e+02
9.9999999967e+02
9.9999999851e+02
9.9999999302e+02
9.9999996844e+02
9.9999986439e+02
9.9999944836e+02
9.9999788140e+02
9.9999233642e+02
9.9997395556e+02
9.9991706797e+02
9.9975329475e+02
9.9931651444e+02
9.9824209676e+02
9.9581524429e+02
9.9080223803e+02
9.8136225371e+02
9.6518161633e+02
9.3992035979e+02
9.0388725773e+02
8.5667383032e+02
7.9945844172e+02
7.3487523352e+02
6.6660499006e+02
5.9884710505e+02
5.3572340884e+02
4.8049106253e+02
4.3440775904e+02
3.9673153763e+02
3.6507797650e+02
3.3737662700e+02
3.1142594527e+02
2.8346216581e+02
2.4968889360e+02
2.1133290862e+02
1.7530116789e+02
1.4908885319e+02
1.3457391115e+02
1.2828377567e+02
1.2601575874e+02
1.2529177077e+02
1.2507891885e+02
1.2502021104e+02
1.2500491077e+02
1.2500113308e+02
1.2500024844e+02
1.2500005180e+02
1.2500001028e+02
1.2500000195e+02
1.2500000035e+02
1.2500000006e+02
1.2500000001e+02
1.2500000001e+02
1.2500000000e+02
1.2500000000e+02
1.2500000000e+02
1.2500000000e+02
1.2500000000e+02
1.2500000000e+02
1.2500000000e+02
1.2500000000e+02
1.2500000000e+02
1.2500000000e+02
1.2500000000e+02
1.2500000000e+02
1.2500000000e+02
1.2500000000e+02
1.2500000000e+02
1.2500000000e+02
1.2500000000e+02
1.2500000000e+02
1.2500000000e+02
1.2500000000e+02
1.2500000000e+02
1.2500000000e+02
1.2500000000e+02
9.9999999996e+02
9.9999999996e+02
9.9999999996e+02
9.9999999996e+02
9.9999999996e+02
9.9999999996e+02
9.9999999996e+02
9.9999999996e+02
9.9999999996e+02
9.9999999996e+02
9.9999999996e+02
9.9999999996e+02
9.9999999996e+02
9.9999999996e+02
9.9999999996e+02
9.9999999996e+02
9.9999999996e+02
9.9999999996e+02
9.9999999996e+02
9.9999999996e+02
9.9999999996e+02
9.9999999996e+02
9.9999999996e+02
9.9999999995e+02
9.9999999990e+02
9.9999999967e+02
9.9999999851e+02
9.9999999302e+02
9.9999996844e+02
9.9999986439e+02
9.9999944836e+02
9.9999788140e+02
9.9999233642e+02
9.9997395556e+02
9.9991706797e+02
9.9975329475e+02
9.9931651444e+02
9.9824209676e+02
9.9581524429e+02
9.9080223803e+02
9.8136225371e+02
9.6518161633e+02
9.3992035979e+02
9.0388725773e+02
8.5667383032e+02
7.9945844172e+02
7.3487523352e+02
6.6660499006e+02
5.9884710505e+02
5.3572340884e+02
4.8049106253e+02
4.3440775904e+02
3.9673153763e+02
3.6507797650e+02
3.3737662700e+02
3.1142594527e+02
2.8346216581e+02
2.4968889360e+02
2.1133290862e+02
1.7530116789e+02
1.4908885319e+02
1.3457391115e+02
1.2828377567e+02
1.2601575874e+02
1.2529177077e+02
1.2507891885e+02
1.2502021104e+02
1.2500491077e+02
1.2500113308e+02
1.2500024844e+02
1.2500005180e+02
1.2500001028e+02
1.2500000195e+02
1.2500000035e+02
1.2500000006e+02
1.2500000001e+02
1.2500000001e+02
1.2500000000e+02
1.2500000000e+02
1.2500000000e+02
1.2500000000e+02
1.2500000000e+02
1.2500000000e+02
1.2500000000e+02
1.2500000000e+02
1.2500000000e+02
1.2500000000e+02
1.2500000000e+02
1.2500000000e+02
1.2500000000e+02
1.2500000000e+02
1.2500000000e+02
1.2500000000e+02
1.2500000000e+02
1.2500000000e+02
1.2500000000e+02
1.2500000000e+02
1.2500000000e+02
1.2500000000e+02
1.2500000000e+02

SCALARS molarDensity float
LOOKUP_TABLE default
1.2977624132e+05
1.2977624132e+05
1.2977624132e+05
1.2977624132e+05
1.2977624132e+05
1.2977624132e+05
1.2977624132e+05
1.2977624132e+05
1.2977624132e+05
1.2977624132e+05
1.2977624132e+05
1.2977624132e+05
1.2977624132e+05
1.2977624132e+05
1.2977624132e+05
1.2977624132e+05
1.2977624132e+05
1.2977624132e+05
1.2977624132e+05
1.2977624132e+05
1.2977624132e+05
1.2977624132e+05
1.2977624132e+05
1.2977624132e+05
1.2977624131e+05
1.2977624128e+05
1.2977624113e+05
1.2977624042e+05
1.2977623723e+05
1.2977622373e+05
1.2977616974e+05
1.2977596638e+05
1.2977524678e+05
1.2977286138e+05
1.2976547872e+05
1.2974422485e+05
1.2968754114e+05
1.2954810725e+05
1.2923315946e+05
1.2858259035e+05
1.2735750467e+05
1.2525764236e+05
1.2197933144e+05
1.1730309089e+05
1.1117590974e+05
1.0375071166e+05
9.5369345650e+04
8.6509490059e+04
7.7716126423e+04
6.9524170390e+04
6.2356324087e+04
5.6375806171e+04
5.1486327770e+04
4.7378447582e+04
4.3783470563e+04
4.0415688628e+04
3.6786654437e+04
3.2403686112e+04
2.7425990549e+04
2.2749926669e+04
1.9348190991e+04
1.7464496370e+04
1.6648186230e+04
1.6353851518e+04
1.6259895080e+04
1.6232271958e+04
1.6224653078e+04
1.6222667467e+04
1.6222177213e+04
1.6222062407e+04
1.6222036889e+04
1.6222031500e+04
1.6222030419e+04
1.6222030212e+04
1.6222030174e+04
1.6222030168e+04
1.6222030167e+04
1.6222030167e+04
1.6222030166e+04
1.6222030166e+04
1.6222030166e+04
1.6222030166e+04
1.6222030166e+04
1.6222030166e+04
1.6222030166e+04
1.6222030166e+04
1.6222030166e+04
1.6222030166e+04
1.6222030166e+04
1.6222030166e+04
1.6222030166e+04
1.6222030166e+04
1.6222030166e+04
1.6222030166e+04
1.6222030166e+04
1.6222030166e+04
1.6222030166e+04
1.6222030166e+04
1.6222030166e+04
1.6222030166e+04
1.2977624132e+05
1.2977624132e+05
1.2977624132e+05
1.2977624132e+05
1.2977624132e+05
1.2977624132e+05
1.2977624132e+05
1.2977624132e+05
1.2977624132e+05
1.2977624132e+05
1.2977624132e+05
1.2977624132e+05
1.2977624132e+05
1.2977624132e+05
1.2977624132e+05
1.2977624132e+05
1.2977624132e+05
1.2977624132e+05
1.2977624132e+05
1.2977624132e+05
1.2977624132e+05
1.2977624132e+05
1.2977624132e+05
1.2977624132e+05
1.2977624131e+05
1.2977624128e+05
1.2977624113e+05
1.2977624042e+05
1.2977623723e+05
1.2977622373e+05
1.2977616974e+05
1.2977596638e+05
1.2977524678e+05
1.2977286138e+05
1.2976547872e+05
1.2974422485e+05
1.2968754114e+05
1.2954810725e+05
1.2923315946e+05
1.2858259035e+05
1.2735750467e+05
1.2525764236e+05
1.2197933144e+05
1.1730309089e+05
1.1117590974e+05
1.0375071166e+05
9.5369345650e+04
8.6509490059e+04
7.7716126423e+04
6.9524170390e+04
6.2356324087e+04
5.6375806171e+04
5.1486327770e+04
4.7378447582e+04
4.3783470563e+04
4.0415688628e+04
3.6786654437e+04
3.2403686112e+04
2.7425990549e+04
2.2749926669e+04
1.9348190991e+04
1.7464496370e+04
1.6648186230e+04
1.6353851518e+04
1.6259895080e+04
1.6232271958e+04
1.6224653078e+04
1.6222667467e+04
1.6222177213e+04