# vtk DataFile Version 2.0
Blank
ASCII
DATASET STRUCTURED_GRID
DIMENSIONS 101 11 2
POINTS 2222 float
0.0000000000e+00 0.0000000000e+00 0.0000000000e+00
1.0000000000e-02 0.0000000000e+00 0.0000000000e+00
2.0000000000e-02 0.0000000000e+00 0.0000000000e+00
3.0000000000e-02 0.0000000000e+00 0.0000000000e+00
4.0000000000e-02 0.0000000000e+00 0.0000000000e+00
5.0000000000e-02 0.0000000000e+00 0.0000000000e+00
6.0000000000e-02 0.0000000000e+00 0.0000000000e+00
7.0000000000e-02 0.0000000000e+00 0.0000000000e+00
8.0000000000e-02 0.0000000000e+00 0.0000000000e+00
9.0000000000e-02 0.0000000000e+00 0.0000000000e+00
1.0000000000e-01 0.0000000000e+00 0.0000000000e+00
1.1000000000e-01 0.0000000000e+00 0.0000000000e+00
1.2000000000e-01 0.0000000000e+00 0.0000000000e+00
1.3000000000e-01 0.0000000000e+00 0.0000000000e+00
1.4000000000e-01 0.0000000000e+00 0.0000000000e+00
1.5000000000e-01 0.0000000000e+00 0.0000000000e+00
1.6000000000e-01 0.0000000000e+00 0.0000000000e+00
1.7000000000e-01 0.0000000000e+00 0.0000000000e+00
1.8000000000e-01 0.0000000000e+00 0.0000000000e+00
1.9000000000e-01 0.0000000000e+00 0.0000000000e+00
2.0000000000e-01 0.0000000000e+00 0.0000000000e+00
2.1000000000e-01 0.0000000000e+00 0.0000000000e+00
2.2000000000e-01 0.0000000000e+00 0.0000000000e+00
2.3000000000e-01 0.0000000000e+00 0.0000000000e+00
2.4000000000e-01 0.0000000000e+00 0.0000000000e+00
2.5000000000e-01 0.0000000000e+00 0.0000000000e+00
2.6000000000e-01 0.0000000000e+00 0.0000000000e+00
2.7000000000e-01 0.0000000000e+00 0.0000000000e+00
2.8000000000e-01 0.0000000000e+00 0.0000000000e+00
2.9000000000e-01 0.0000000000e+00 0.0000000000e+00
3.0000000000e-01 0.0000000000e+00 0.0000000000e+00
3.1000000000e-01 0.0000000000e+00 0.0000000000e+00
3.2000000000e-01 0.0000000000e+00 0.0000000000e+00
3.3000000000e-01 0.0000000000e+00 0.0000000000e+00
3.4000000000e-01 0.0000000000e+00 0.0000000000e+00
3.5000000000e-01 0.0000000000e+00 0.0000000000e+00
3.6000000000e-01 0.0000000000e+00 0.0000000000e+00
3.7000000000e-01 0.0000000000e+00 0.0000000000e+00
3.8000000000e-01 0.0000000000e+00 0.0000000000e+00
3.9000000000e-01 0.0000000000e+00 0.0000000000e+00
4.0000000000e-01 0.0000000000e+00 0.0000000000e+00
4.1000000000e-01 0.0000000000e+00 0.0000000000e+00
4.2000000000e-01 0.0000000000e+00 0.0000000000e+00
4.3000000000e-01 0.0000000000e+00 0.0000000000e+00
4.4000000000e-01 0.0000000000e+00 0.0000000000e+00
4.5000000000e-01 0.0000000000e+00 0.0000000000e+00
4.6000000000e-01 0.0000000000e+00 0.0000000000e+00
4.7000000000e-01 0.0000000000e+00 0.0000000000e+00
4.8000000000e-01 0.0000000000e+00 0.0000000000e+00
4.9000000000e-01 0.0000000000e+00 0.0000000000e+00
5.0000000000e-01 0.0000000000e+00 0.0000000000e+00
5.1000000000e-01 0.0000000000e+00 0.0000000000e+00
5.2000000000e-01 0.0000000000e+00 0.0000000000e+00
5.3000000000e-01 0.0000000000e+00 0.0000000000e+00
5.4000000000e-01 0.0000000000e+00 0.0000000000e+00
5.5000000000e-01 0.0000000000e+00 0.0000000000e+00
5.6000000000e-01 0.0000000000e+00 0.0000000000e+00
5.7000000000e-01 0.0000000000e+00 0.0000000000e+00
5.8000000000e-01 0.0000000000e+00 0.0000000000e+00
5.9000000000e-01 0.0000000000e+00 0.0000000000e+00
6.0000000000e-01 0.0000000000e+00 0.0000000000e+00
6.1000000000e-01 0.0000000000e+00 0.0000000000e+00
6.2000000000e-01 0.0000000000e+00 0.0000000000e+00
6.3000000000e-01 0.0000000000e+00 0.0000000000e+00
6.4000000000e-01 0.0000000000e+00 0.0000000000e+00
6.5000000000e-01 0.0000000000e+00 0.0000000000e+00
6.6000000000e-01 0.0000000000e+00 0.0000000000e+00
6.7000000000e-01 0.0000000000e+00 0.0000000000e+00
6.8000000000e-01 0.0000000000e+00 0.0000000000e+00
6.9000000000e-01 0.0000000000e+00 0.0000000000e+00
7.0000000000e-01 0.0000000000e+00 0.0000000000e+00
7.1000000000e-01 0.0000000000e+00 0.0000000000e+00
7.2000000000e-01 0.0000000000e+00 0.0000000000e+00
7.3000000000e-01 0.0000000000e+00 0.0000000000e+00
7.4000000000e-01 0.0000000000e+00 0.0000000000e+00
7.5000000000e-01 0.0000000000e+00 0.0000000000e+00
7.6000000000e-01 0.0000000000e+00 0.0000000000e+00
7.7000000000e-01 0.0000000000e+00 0.0000000000e+00
7.8000000000e-01 0.0000000000e+00 0.0000000000e+00
7.9000000000e-01 0.0000000000e+00 0.0000000000e+00
8.0000000000e-01 0.0000000000e+00 0.0000000000e+00
8.1000000000e-01 0.0000000000e+00 0.0000000000e+00
8.2000000000e-01 0.0000000000e+00 0.0000000000e+00
8.3000000000e-01 0.0000000000e+00 0.0000000000e+00
8.4000000000e-01 0.0000000000e+00 0.0000000000e+00
8.5000000000e-01 0.0000000000e+00 0.0000000000e+00
8.6000000000e-01 0.0000000000e+00 0.0000000000e+00
8.7000000000e-01 0.0000000000e+00 0.0000000000e+00
8.8000000000e-01 0.0000000000e+00 0.0000000000e+00
8.9000000000e-01 0.0000000000e+00 0.0000000000e+00
9.0000000000e-01 0.0000000000e+00 0.0000000000e+00
9.1000000000e-01 0.0000000000e+00 0.0000000000e+00
9.2000000000e-01 0.0000000000e+00 0.0000000000e+00
9.3000000000e-01 0.0000000000e+00 0.0000000000e+00
9.4000000000e-01 0.0000000000e+00 0.0000000000e+00
9.5000000000e-01 0.0000000000e+00 0.0000000000e+00
9.6000000000e-01 0.0000000000e+00 0.0000000000e+00
9.7000000000e-01 0.0000000000e+00 0.0000000000e+00
9.8000000000e-01 0.0000000000e+00 0.0000000000e+00
9.9000000000e-01 0.0000000000e+00 0.0000000000e+00
1.0000000000e+00 0.0000000000e+00 0.0000000000e+00
0.0000000000e+00 1.0000000000e-03 0.0000000000e+00
1.0000000000e-02 1.0000000000e-03 0.0000000000e+00
2.0000000000e-02 1.0000000000e-03 0.0000000000e+00
3.0000000000e-02 1.0000000000e-03 0.0000000000e+00
4.0000000000e-02 1.0000000000e-03 0.0000000000e+00
5.0000000000e-02 1.0000000000e-03 0.0000000000e+00
6.0000000000e-02 1.0000000000e-03 0.0000000000e+00
7.0000000000e-02 1.0000000000e-03 0.0000000000e+00
8.0000000000e-02 1.0000000000e-03 0.0000000000e+00
9.0000000000e-02 1.0000000000e-03 0.0000000000e+00
1.0000000000e-01 1.0000000000e-03 0.0000000000e+00
1.1000000000e-01 1.0000000000e-03 0.0000000000e+00
1.2000000000e-01 1.0000000000e-03 0.0000000000e+00
1.3000000000e-01 1.0000000000e-03 0.0000000000e+00
1.4000000000e-01 1.0000000000e-03 0.0000000000e+00
1.5000000000e-01 1.0000000000e-03 0.0000000000e+00
1.6000000000e-01 1.0000000000e-03 0.0000000000e+00
1.7000000000e-01 1.0000000000e-03 0.0000000000e+00
1.8000000000e-01 1.0000000000e-03 0.0000000000e+00
1.9000000000e-01 1.0000000000e-03 0.0000000000e+00
2.0000000000e-01 1.0000000000e-03 0.0000000000e+00
2.1000000000e-01 1.0000000000e-03 0.0000000000e+00
2.2000000000e-01 1.0000000000e-03 0.0000000000e+00
2.3000000000e-01 1.0000000000e-03 0.0000000000e+00
2.4000000000e-01 1.0000000000e-03 0.0000000000e+00
2.5000000000e-01 1.0000000000e-03 0.0000000000e+00
2.6000000000e-01 1.0000000000e-03 0.0000000000e+00
2.7000000000e-01 1.0000000000e-03 0.0000000000e+00
2.8000000000e-01 1.0000000000e-03 0.0000000000e+00
2.9000000000e-01 1.0000000000e-03 0.0000000000e+00
3.0000000000e-01 1.0000000000e-03 0.0000000000e+00
3.1000000000e-01 1.0000000000e-03 0.0000000000e+00
3.2000000000e-01 1.0000000000e-03 0.0000000000e+00
3.3000000000e-01 1.0000000000e-03 0.0000000000e+00
3.4000000000e-01 1.0000000000e-03 0.0000000000e+00
3.5000000000e-01 1.0000000000e-03 0.0000000000e+00
3.6000000000e-01 1.0000000000e-03 0.0000000000e+00
3.7000000000e-01 1.0000000000e-03 0.0000000000e+00
3.8000000000e-01 1.0000000000e-03 0.0000000000e+00
3.9000000000e-01 1.0000000000e-03 0.0000000000e+00
4.0000000000e-01 1.0000000000e-03 0.0000000000e+00
4.1000000000e-01 1.0000000000e-03 0.0000000000e+00
4.2000000000e-01 1.0000000000e-03 0.0000000000e+00
4.3000000000e-01 1.0000000000e-03 0.0000000000e+00
4.4000000000e-01 1.0000000000e-03 0.0000000000e+00
4.5000000000e-01 1.0000000000e-03 0.0000000000e+00
4.6000000000e-01 1.0000000000e-03 0.0000000000e+00
4.7000000000e-01 1.0000000000e-03 0.0000000000e+00
4.8000000000e-01 1.0000000000e-03 0.0000000000e+00
4.9000000000e-01 1.0000000000e-03 0.0000000000e+00
5.0000000000e-01 1.0000000000e-03 0.0000000000e+00
5.1000000000e-01 1.0000000000e-03 0.0000000000e+00
5.2000000000e-01 1.0000000000e-03 0.0000000000e+00
5.3000000000e-01 1.0000000000e-03 0.0000000000e+00
5.4000000000e-01 1.0000000000e-03 0.0000000000e+00
5.5000000000e-01 1.0000000000e-03 0.0000000000e+00
5.6000000000e-01 1.0000000000e-03 0.0000000000e+00
5.7000000000e-01 1.0000000000e-03 0.0000000000e+00
5.8000000000e-01 1.0000000000e-03 0.0000000000e+00
5.9000000000e-01 1.0000000000e-03 0.0000000000e+00
6.0000000000e-01 1.0000000000e-03 0.0000000000e+00
6.1000000000e-01 1.0000000000e-03 0.0000000000e+00
6.2000000000e-01 1.0000000000e-03 0.0000000000e+00
6.3000000000e-01 1.0000000000e-03 0.0000000000e+00
6.4000000000e-01 1.0000000000e-03 0.0000000000e+00
6.5000000000e-01 1.0000000000e-03 0.0000000000e+00
6.6000000000e-01 1.0000000000e-03 0.0000000000e+00
6.7000000000e-01 1.0000000000e-03 0.0000000000e+00
6.8000000000e-01 1.0000000000e-03 0.0000000000e+00
6.9000000000e-01 1.0000000000e-03 0.0000000000e+00
7.0000000000e-01 1.0000000000e-03 0.0000000000e+00
7.1000000000e-01 1.0000000000e-03 0.0000000000e+00
7.2000000000e-01 1.0000000000e-03 0.0000000000e+00
7.3000000000e-01 1.0000000000e-03 0.0000000000e+00
7.4000000000e-01 1.0000000000e-03 0.0000000000e+00
7.5000000000e-01 1.0000000000e-03 0.0000000000e+00
7.6000000000e-01 1.0000000000e-03 0.0000000000e+00
7.7000000000e-01 1.0000000000e-03 0.0000000000e+00
7.8000000000e-01 1.0000000000e-03 0.0000000000e+00
7.9000000000e-01 1.0000000000e-03 0.0000000000e+00
8.0000000000e-01 1.0000000000e-03 0.0000000000e+00
8.1000000000e-01 1.0000000000e-03 0.0000000000e+00
8.2000000000e-01 1.0000000000e-03 0.0000000000e+00
8.3000000000e-01 1.0000000000e-03 0.0000000000e+00
8.4000000000e-01 1.0000000000e-03 0.0000000000e+00
8.5000000000e-01 1.0000000000e-03 0.0000000000e+00
8.6000000000e-01 1.0000000000e-03 0.0000000000e+00
8.7000000000e-01 1.0000000000e-03 0.0000000000e+00
8.8000000000e-01 1.0000000000e-03 0.0000000000e+00
8.9000000000e-01 1.0000000000e-03 0.0000000000e+00
9.0000000000e-01 1.0000000000e-03 0.0000000000e+00
9.1000000000e-01 1.0000000000e-03 0.0000000000e+00
9.2000000000e-01 1.0000000000e-03 0.0000000000e+00
[...]
CELL_DATA 1000

SCALARS massDensity float
LOOKUP_TABLE default
9.9999999996e+02
9.9999999996e+02
9.9999999996e+02
9.9999999996e+02
9.9999999996e+02
9.9999999996e+02
9.9999999996e+02
9.9999999996e+02
9.9999999996e+02
9.9999999996e+02
9.9999999996e+02
9.9999999996e+02
9.9999999996e+02
9.9999999995e+02
9.9999999995e+02
9.9999999991e+02
9.9999999978e+02
9.9999999929e+02
9.9999999748e+02
9.9999999111e+02
9.9999996947e+02
9.9999989879e+02
9.9999967701e+02
9.9999900951e+02
9.9999708499e+02
9.9999177752e+02
9.9997780010e+02
9.9994271209e+02
9.9985891474e+02
9.9966892895e+02
9.9926093497e+02
9.9843294726e+02
9.9684858934e+02
9.9399578644e+02
9.8916936001e+02
9.8150277943e+02
9.7006494378e+02
9.5401267049e+02
9.3275930592e+02
9.0610440171e+02
8.7428205639e+02
8.3791993551e+02
7.9793551226e+02
7.5541191679e+02
7.1148991724e+02
6.6729505229e+02
6.2390136777e+02
5.8232093325e+02
5.4350035232e+02
5.0829680256e+02
4.7739393992e+02
4.5111265905e+02
4.2911250593e+02
4.1027809442e+02
3.9279912126e+02
3.7501150827e+02
3.5624419462e+02
3.3709020375e+02
3.1898461562e+02
3.0338300291e+02
2.9074736093e+02
2.7940210549e+02
2.6510602150e+02
2.4331017211e+02
2.1346485852e+02
1.8128671361e+02
1.5489743952e+02
1.3838529467e+02
1.3023953164e+02
1.2687539462e+02
1.2563445763e+02
1.2520639233e+02
1.2506500305e+02
1.2501985966e+02
1.2500588636e+02
1.2500169186e+02
1.2500047131e+02
1.2500012721e+02
1.2500003326e+02
1.2500000843e+02
1.2500000207e+02
1.2500000050e+02
1.2500000012e+02
1.2500000003e+02
1.2500000001e+02
1.2500000001e+02
1.2500000000e+02
1.2500000000e+02
1.2500000000e+02
1.2500000000e+02
1.2500000000e+02
1.2500000000e+02
1.2500000000e+02
1.2500000000e+02
1.2500000000e+02
1.2500000000e+02
1.2500000000e+02
1.2500000000e+02
1.2500000000e+02
1.2500000000e+02
9.9999999996e+02
9.9999999996e+02
9.9999999996e+02
9.9999999996e+02
9.9999999996e+02
9.9999999996e+02
9.9999999996e+02
9.9999999996e+02
9.9999999996e+02
9.9999999996e+02
9.9999999996e+02
9.9999999996e+02
9.9999999996e+02
9.9999999995e+02
9.9999999995e+02
9.9999999991e+02
9.9999999978e+02
9.9999999929e+02
9.9999999748e+02
9.9999999111e+02
9.9999996947e+02
9.9999989879e+02
9.9999967701e+02
9.9999900951e+02
9.9999708499e+02
9.9999177752e+02
9.9997780010e+02
9.9994271209e+02
9.9985891474e+02
9.9966892895e+02
9.9926093497e+02
9.9843294726e+02
9.9684858934e+02
9.9399578644e+02
9.8916936001e+02
9.8150277943e+02
9.7006494378e+02
9.5401267049e+02
9.3275930592e+02
9.0610440171e+02
8.7428205639e+02
8.3791993551e+02
7.9793551226e+02
7.5541191679e+02
7.1148991724e+02
6.6729505229e+02
6.2390136777e+02
5.8232093325e+02
5.4350035232e+02
5.0829680256e+02
4.7739393992e+02
4.5111265905e+02
4.2911250593e+02
4.1027809442e+02
3.9279912126e+02
3.7501150827e+02
3.5624419462e+02
3.3709020375e+02
3.1898461562e+02
3.0338300291e+02
2.9074736093e+02
2.7940210549e+02
2.6510602150e+02
2.4331017211e+02
2.1346485852e+02
1.8128671361e+02
1.5489743952e+02
1.3838529467e+02
1.3023953164e+02
1.2687539462e+02
1.2563445763e+02
1.2520639233e+02
1.2506500305e+02
1.2501985966e+02
1.2500588636e+02
1.2500169186e+02
1.2500047131e+02
1.2500012721e+02
1.2500003326e+02
1.2500000843e+02
1.2500000207e+02
1.2500000050e+02
1.2500000012e+02
1.2500000003e+02
1.2500000001e+02
1.2500000001e+02
1.2500000000e+02
1.2500000000e+02
1.2500000000e+02
1.2500000000e+02
1.2500000000e+02
1.2500000000e+02
1.2500000000e+02
1.2500000000e+02
1.2500000000e+02
1.2500000000e+02
1.2500000000e+02
1.2500000000e+02
1.2500000000e+02
1.2500000000e+02
9.9999999996e+02
9.9999999996e+02
9.9999999996e+02
9.9999999996e+02
9.9999999996e+02
9.9999999996e+02
9.9999999996e+02
9.9999999996e+02
9.9999999996e+02
9.9999999996e+02
9.9999999996e+02
9.9999999996e+02
9.9999999996e+02
9.9999999995e+02
9.9999999995e+02
9.9999999991e+02
9.9999999978e+02
9.9999999929e+02
9.9999999748e+02
9.9999999111e+02
9.9999996947e+02
9.9999989879e+02
9.9999967701e+02
9.9999900951e+02
9.9999708499e+02
9.9999177752e+02
9.9997780010e+02
9.9994271209e+02
9.9985891474e+02
9.9966892895e+02
9.9926093497e+02
9.9843294726e+02
9.9684858934e+02
9.9399578644e+02
9.8916936001e+02
9.8150277943e+02
9.7006494378e+02
9.5401267049e+02
9.3275930592e+02
9.0610440171e+02
8.7428205639e+02
8.3791993551e+02
7.9793551226e+02
7.5541191679e+02
7.1148991724e+02
6.6729505229e+02
6.2390136777e+02
5.8232093325e+02
5.4350035232e+02
5.0829680256e+02
4.7739393992e+02
4.5111265905e+02
4.2911250593e+02
4.1027809442e+02
3.9279912126e+02
3.7501150827e+02
3.5624419462e+02
3.3709020375e+02
3.1898461562e+02
3.0338300291e+02
2.9074736093e+02
2.7940210549e+02
2.6510602150e+02
2.4331017211e+02
2.1346485852e+02
1.8128671361e+02
1.5489743952e+02
1.3838529467e+02
1.3023953164e+02
1.2687539462e+02
1.2563445763e+02
1.2520639233e+02
1.2506500305e+02
1.2501985966e+02
1.2500588636e+02
1.2500169186e+02
1.2500047131e+02
1.2500012721e+02
1.2500003326e+02
1.2500000843e+02
1.2500000207e+02
1.2500000050e+02
1.2500000012e+02
1.2500000003e+02
1.2500000001e+02
1.2500000001e+02
1.2500000000e+02
1.2500000000e+02
1.2500000000e+02
1.2500000000e+02
1.2500000000e+02
1.2500000000e+02
1.2500000000e+02
1.2500000000e+02
1.2500000000e+02
1.2500000000e+02
1.2500000000e+02
1.2500000000e+02
1.2500000000e+02
1.2500000000e+02
9.9999999996e+02
9.9999999996e+02
9.9999999996e+02
9.9999999996e+02
9.9999999996e+02
9.9999999996e+02
9.9999999996e+02
9.9999999996e+02
9.9999999996e+02
9.9999999996e+02
9.9999999996e+02
9.9999999996e+02
9.9999999996e+02
9.9999999995e+02
9.9999999995e+02
9.9999999991e+02
9.9999999978e+02
9.9999999929e+02
9.9999999748e+02
9.9999999111e+02
9.9999996947e+02
9.9999989879e+02
9.9999967701e+02
9.9999900951e+02
9.9999708499e+02
9.9999177752e+02
9.9997780010e+02
9.9994271209e+02
9.9985891474e+02
9.9966892895e+02
9.9926093497e+02
9.9843294726e+02
9.9684858934e+02
9.9399578644e+02
9.8916936001e+02
9.8150277943e+02
9.7006494378e+02
9.5401267049e+02
9.3275930592e+02
9.0610440171e+02
8.7428205639e+02
8.3791993551e+02
7.9793551226e+02
7.5541191679e+02
7.1148991724e+02
6.6729505229e+02
6.2390136777e+02
5.8232093325e+02
5.4350035232e+02
5.0829680256e+02
4.7739393992e+02
4.5111265905e+02
4.2911250593e+02
4.1027809442e+02
3.9279912126e+02
3.7501150827e+02
3.5624419462e+02
3.3709020375e+02
3.1898461562e+02
3.0338300291e+02
2.9074736093e+02
2.7940210549e+02
2.6510602150e+02
2.4331017211e+02
2.1346485852e+02
1.8128671361e+02
1.5489743952e+02
1.3838529467e+02
1.3023953164e+02
1.2687539462e+02
1.2563445763e+02
1.2520639233e+02
1.2506500305e+02
1.2501985966e+02
1.2500588636e+02
1.2500169186e+02
1.2500047131e+02
1.2500012721e+02
1.2500003326e+02
1.2500000843e+02
1.2500000207e+02
1.2500000050e+02
1.2500000012e+02
1.2500000003e+02
1.2500000001e+02
1.2500000001e+02
1.2500000000e+02
1.2500000000e+02
1.2500000000e+02
1.2500000000e+02
1.2500000000e+02
1.2500000000e+02
1.2500000000e+02
1.2500000000e+02
1.2500000000e+02
1.2500000000e+02
1.2500000000e+02
1.2500000000e+02
1.2500000000e+02
1.2500000000e+02
9.9999999996e+02
9.9999999996e+02
9.9999999996e+02
9.9999999996e+02
9.9999999996e+02
9.9999999996e+02
9.9999999996e+02
9.9999999996e+02
9.9999999996e+02
9.9999999996e+02
9.9999999996e+02
9.9999999996e+02
9.9999999996e+02
9.9999999995e+02
9.9999999995e+02
9.9999999991e+02
9.9999999978e+02
9.9999999929e+02
9.9999999748e+02
9.9999999111e+02
9.9999996947e+02
9.9999989879e+02
9.9999967701e+02
9.9999900951e+02
9.9999708499e+02
9.9999177752e+02
9.9997780010e+02
9.9994271209e+02
9.9985891474e+02
9.9966892895e+02
9.9926093497e+02
9.9843294726e+02
9.9684858934e+02
9.9399578644e+02
9.8916936001e+02
9.8150277943e+02
9.7006494378e+02
9.5401267049e+02
9.3275930592e+02
9.0610440171e+02
8.7428205639e+02
8.3791993551e+02
7.9793551226e+02
7.5541191679e+02
7.1148991724e+02
6.6729505229e+02
6.2390136777e+02
5.8232093325e+02
5.4350035232e+02
5.0829680256e+02
4.7739393992e+02
4.5111265905e+02
4.2911250593e+02
4.1027809442e+02
3.9279912126e+02
3.7501150827e+02
3.5624419462e+02
3.3709020375e+02
3.1898461562e+02
3.0338300291e+02
2.9074736093e+02
2.7940210549e+02
2.6510602150e+02
2.4331017211e+02
2.1346485852e+02
1.8128671361e+02
1.5489743952e+02
1.3838529467e+02
1.3023953164e+02
1.2687539462e+02
1.2563445763e+02
1.2520639233e+02
1.2506500305e+02
1.2501985966e+02
1.2500588636e+02
1.2500169186e+02
1.2500047131e+02
1.2500012721e+02
1.2500003326e+02
1.2500000843e+02
1.2500000207e+02
1.2500000050e+02
1.2500000012e+02
1.2500000003e+02
1.2500000001e+02
1.2500000001e+02
1.2500000000e+02
1.2500000000e+02
1.2500000000e+02
1.2500000000e+02
1.2500000000e+02
1.2500000000e+02
1.2500000000e+02
1.2500000000e+02
1.2500000000e+02
1.2500000000e+02
1.2500000000e+02
1.2500000000e+02
1.2500000000e+02
1.2500000000e+02
9.9999999996e+02
9.9999999996e+02
9.9999999996e+02
9.9999999996e+02
9.9999999996e+02
9.9999999996e+02
9.9999999996e+02
9.9999999996e+02
9.9999999996e+02
9.9999999996e+02
9.9999999996e+02
9.9999999996e+02
9.9999999996e+02
9.9999999995e+02
9.9999999995e+02
9.9999999991e+02
9.9999999978e+02
9.9999999929e+02
9.9999999748e+02
9.9999999111e+02
9.9999996947e+02
9.9999989879e+02
9.9999967701e+02
9.9999900951e+02
9.9999708499e+02
9.9999177752e+02
9.9997780010e+02
9.9994271209e+02
9.9985891474e+02
9.9966892895e+02
9.9926093497e+02
9.9843294726e+02
9.9684858934e+02
9.9399578644e+02
9.8916936001e+02
9.8150277943e+02
9.7006494378e+02
9.5401267049e+02
9.3275930592e+02
9.0610440171e+02
8.7428205639e+02
8.3791993551e+02
7.9793551226e+02
7.5541191679e+02
7.1148991724e+02
6.6729505229e+02
6.2390136777e+02
5.8232093325e+02
5.4350035232e+02
5.0829680256e+02
4.7739393992e+02
4.5111265905e+02
4.2911250593e+02
4.1027809442e+02
3.9279912126e+02
3.7501150827e+02
3.5624419462e+02
3.3709020375e+02
3.1898461562e+02
3.0338300291e+02
2.9074736093e+02
2.7940210549e+02
2.6510602150e+02
2.4331017211e+02
2.1346485852e+02
1.8128671361e+02
1.5489743952e+02
1.3838529467e+02
1.3023953164e+02
1.2687539462e+02
1.2563445763e+02
1.2520639233e+02
1.2506500305e+02
1.2501985966e+02
1.2500588636e+02
1.2500169186e+02
1.2500047131e+02
1.2500012721e+02
1.2500003326e+02
1.2500000843e+02
1.2500000207e+02
1.2500000050e+02
1.2500000012e+02
1.2500000003e+02
1.2500000001e+02
1.2500000001e+02
1.2500000000e+02
1.2500000000e+02
1.2500000000e+02
1.2500000000e+02
1.2500000000e+02
1.2500000000e+02
1.2500000000e+02
1.2500000000e+02
1.2500000000e+02
1.2500000000e+02
1.2500000000e+02
1.2500000000e+02
1.2500000000e+02
1.2500000000e+02
9.9999999996e+02
9.9999999996e+02
9.9999999996e+02
9.9999999996e+02
9.9999999996e+02
9.9999999996e+02
9.9999999996e+02
9.9999999996e+02
9.9999999996e+02
9.9999999996e+02
9.9999999996e+02
9.9999999996e+02
9.9999999996e+02
9.9999999995e+02
9.9999999995e+02
9.9999999991e+02
9.9999999978e+02
9.9999999929e+02
9.9999999748e+02
9.9999999111e+02
9.9999996947e+02
9.9999989879e+02
9.9999967701e+02
9.9999900951e+02
9.9999708499e+02
9.9999177752e+02
9.9997780010e+02
9.9994271209e+02
9.9985891474e+02
9.9966892895e+02
9.9926093497e+02
9.9843294726e+02
9.9684858934e+02
9.9399578644e+02
9.8916936001e+02
9.8150277943e+02
9.7006494378e+02
9.5401267049e+02
9.3275930592e+02
9.0610440171e+02
8.7428205639e+02
8.3791993551e+02
7.9793551226e+02
7.5541191679e+02
7.1148991724e+02
6.6729505229e+02
6.2390136777e+02
5.8232093325e+02
5.4350035232e+02
5.0829680256e+02
4.7739393992e+02
4.5111265905e+02
4.2911250593e+02
4.1027809442e+02
3.9279912126e+02
3.7501150827e+02
3.5624419462e+02
3.3709020375e+02
3.1898461562e+02
3.0338300291e+02
2.9074736093e+02
2.7940210549e+02
2.6510602150e+02
2.4331017211e+02
2.1346485852e+02
1.8128671361e+02
1.5489743952e+02
1.3838529467e+02
1.3023953164e+02
1.2687539462e+02
1.2563445763e+02
1.2520639233e+02
1.2506500305e+02
1.2501985966e+02
1.2500588636e+02
1.2500169186e+02
1.2500047131e+02
1.2500012721e+02
1.2500003326e+02
1.2500000843e+02
1.2500000207e+02
1.2500000050e+02
1.2500000012e+02
1.2500000003e+02
1.2500000001e+02
1.2500000001e+02
1.2500000000e+02
1.2500000000e+02
1.2500000000e+02
1.2500000000e+02
1.2500000000e+02
1.2500000000e+02
1.2500000000e+02
1.2500000000e+02
1.2500000000e+02
1.2500000000e+02
1.2500000000e+02
1.2500000000e+02
1.2500000000e+02
1.2500000000e+02
9.9999999996e+02
9.9999999996e+02
9.9999999996e+02
9.9999999996e+02
9.9999999996e+02
9.9999999996e+02
9.9999999996e+02
9.9999999996e+02
9.9999999996e+02
9.9999999996e+02
9.9999999996e+02
9.9999999996e+02
9.9999999996e+02
9.9999999995e+02
9.9999999995e+02
9.9999999991e+02
9.9999999978e+02
9.9999999929e+02
9.9999999748e+02
9.9999999111e+02
9.9999996947e+02
9.9999989879e+02
9.9999967701e+02
9.9999900951e+02
9.9999708499e+02
9.9999177752e+02
9.9997780010e+02
9.9994271209e+02
9.9985891474e+02
9.9966892895e+02
9.9926093497e+02
9.9843294726e+02
9.9684858934e+02
9.9399578644e+02
9.8916936001e+02
9.8150277943e+02
9.7006494378e+02
9.5401267049e+02
9.3275930592e+02
9.0610440171e+02
8.7428205639e+02
8.3791993551e+02
7.9793551226e+02
7.5541191679e+02
7.1148991724e+02
6.6729505229e+02
6.2390136777e+02
5.8232093325e+02
5.4350035232e+02
5.0829680256e+02
4.7739393992e+02
4.5111265905e+02
4.2911250593e+02
4.1027809442e+02
3.9279912126e+02
3.7501150827e+02
3.5624419462e+02
3.3709020375e+02
3.1898461562e+02
3.0338300291e+02
2.9074736093e+02
2.7940210549e+02
2.6510602150e+02
2.4331017211e+02
2.1346485852e+02
1.8128671361e+02
1.5489743952e+02
1.3838529467e+02
1.3023953164e+02
1.2687539462e+02
1.2563445763e+02
1.2520639233e+02
1.2506500305e+02
1.2501985966e+02
1.2500588636e+02
1.2500169186e+02
1.2500047131e+02
1.2500012721e+02
1.2500003326e+02
1.2500000843e+02
1.2500000207e+02
1.2500000050e+02
1.2500000012e+02
1.2500000003e+02
1.2500000001e+02
1.2500000001e+02
1.2500000000e+02
1.2500000000e+02
1.2500000000e+02
1.2500000000e+02
1.2500000000e+02
1.2500000000e+02
1.2500000000e+02
1.2500000000e+02
1.2500000000e+02
1.2500000000e+02
1.2500000000e+02
1.2500000000e+02
1.2500000000e+02
1.2500000000e+02
9.9999999996e+02
9.9999999996e+02
9.9999999996e+02
9.9999999996e+02
9.9999999996e+02
9.9999999996e+02
9.9999999996e+02
9.9999999996e+02
9.9999999996e+02
9.9999999996e+02
9.9999999996e+02
9.9999999996e+02
9.9999999996e+02
9.9999999995e+02
9.9999999995e+02
9.9999999991e+02
9.9999999978e+02
9.9999999929e+02
9.9999999748e+02
9.9999999111e+02
9.9999996947e+02
9.9999989879e+02
9.9999967701e+02
9.9999900951e+02
9.9999708499e+02
9.9999177752e+02
9.9997780010e+02
9.9994271209e+02
9.9985891474e+02
9.9966892895e+02
9.9926093497e+02
9.9843294726e+02
9.9684858934e+02
9.9399578644e+02
9.8916936001e+02
9.8150277943e+02
9.7006494378e+02
9.5401267049e+02
9.3275930592e+02
9.0610440171e+02
8.7428205639e+02
8.3791993551e+02
7.9793551226e+02
7.5541191679e+02
7.1148991724e+02
6.6729505229e+02
6.2390136777e+02
5.8232093325e+02
5.4350035232e+02
5.0829680256e+02
4.7739393992e+02
4.5111265905e+02
4.2911250593e+02
4.1027809442e+02
3.9279912126e+02
3.7501150827e+02
3.5624419462e+02
3.3709020375e+02
3.1898461562e+02
3.0338300291e+02
2.9074736093e+02
2.7940210549e+02
2.6510602150e+02
2.4331017211e+02
2.1346485852e+02
1.8128671361e+02
1.5489743952e+02
1.3838529467e+02
1.3023953164e+02
1.2687539462e+02
1.2563445763e+02
1.2520639233e+02
1.2506500305e+02
1.2501985966e+02
1.2500588636e+02
1.2500169186e+02
1.2500047131e+02
1.2500012721e+02
1.2500003326e+02
1.2500000843e+02
1.2500000207e+02
1.2500000050e+02
1.2500000012e+02
1.2500000003e+02
1.2500000001e+02
1.2500000001e+02
1.2500000000e+02
1.2500000000e+02
1.2500000000e+02
1.2500000000e+02
1.2500000000e+02
1.2500000000e+02
1.2500000000e+02
1.2500000000e+02
1.2500000000e+02
1.2500000000e+02
1.2500000000e+02
1.2500000000e+02
1.2500000000e+02
1.2500000000e+02
9.9999999996e+02
9.9999999996e+02
9.9999999996e+02
9.9999999996e+02
9.9999999996e+02
9.9999999996e+02
9.9999999996e+02
9.9999999996e+02
9.9999999996e+02
9.9999999996e+02
9.9999999996e+02
9.9999999996e+02
9.9999999996e+02
9.9999999995e+02
9.9999999995e+02
9.9999999991e+02
9.9999999978e+02
9.9999999929e+02
9.9999999748e+02
9.9999999111e+02
9.9999996947e+02
9.9999989879e+02
9.9999967701e+02
9.9999900951e+02
9.9999708499e+02
9.9999177752e+02
9.9997780010e+02
9.9994271209e+02
9.9985891474e+02
9.9966892895e+02
9.9926093497e+02
9.9843294726e+02
9.9684858934e+02
9.9399578644e+02
9.8916936001e+02
9.8150277943e+02
9.7006494378e+02
9.5401267049e+02
9.3275930592e+02
9.0610440171e+02
8.7428205639e+02
8.3791993551e+02
7.9793551226e+02
7.5541191679e+02
7.1148991724e+02
6.6729505229e+02
6.2390136777e+02
5.8232093325e+02
5.4350035232e+02
5.0829680256e+02
4.7739393992e+02
4.5111265905e+02
4.2911250593e+02
4.1027809442e+02
3.9279912126e+02
3.7501150827e+02
3.5624419462e+02
3.3709020375e+02
3.1898461562e+02
3.0338300291e+02
2.9074736093e+02
2.7940210549e+02
2.6510602150e+02
2.4331017211e+02
2.1346485852e+02
1.8128671361e+02
1.5489743952e+02
1.3838529467e+02
1.3023953164e+02
1.2687539462e+02
1.2563445763e+02
1.2520639233e+02
1.2506500305e+02
1.2501985966e+02
1.2500588636e+02
1.2500169186e+02
1.2500047131e+02
1.2500012721e+02
1.2500003326e+02
1.2500000843e+02
1.2500000207e+02
1.2500000050e+02
1.2500000012e+02
1.2500000003e+02
1.2500000001e+02
1.2500000001e+02
1.2500000000e+02
1.2500000000e+02
1.2500000000e+02
1.2500000000e+02
1.2500000000e+02
1.2500000000e+02
1.2500000000e+02
1.2500000000e+02
1.2500000000e+02
1.2500000000e+02
1.2500000000e+02
1.2500000000e+02
1.2500000000e+02
1.2500000000e+02

SCALARS molarDensity float
LOOKUP_TABLE default
1.2977624132e+05
1.2977624132e+05
1.2977624132e+05
1.2977624132e+05
1.2977624132e+05
1.2977624132e+05
1.2977624132e+05
1.2977624132e+05
1.2977624132e+05
1.2977624132e+05
1.2977624132e+05
1.2977624132e+05
1.2977624132e+05
1.2977624132e+05
1.2977624132e+05
1.2977624132e+05
1.2977624130e+05
1.2977624123e+05
1.2977624100e+05
1.2977624017e+05
1.2977623737e+05
1.2977622819e+05
1.2977619941e+05
1.2977611279e+05
1.2977586303e+05
1.2977517424e+05
1.2977336031e+05
1.2976880672e+05
1.2975793181e+05
1.2973327617e+05
1.2968032825e+05
1.2957287511e+05
1.2936726310e+05
1.2899703706e+05
1.2837068158e+05
1.2737574157e+05
1.2589138225e+05
1.2380817855e+05
1.2104999679e+05
1.1759082350e+05
1.1346103914e+05
1.0874209976e+05
1.0355307160e+05
9.8034519214e+04
9.2334487201e+04
8.6599043743e+04
8.0967574468e+04
7.5571421964e+04
7.0533432884e+04
6.5964848514e+04
6.1954391155e+04
5.8543705307e+04
5.5688608126e+04
5.3244348993e+04
5.0975993554e+04
4.8667583997e+04
4.6232032572e+04
4.3746299631e+04
4.1396624457e+04
3.9371905800e+04
3.7732099678e+04
3.6259755070e+04
3.4404463023e+04
3.1575879614e+04
2.7702666994e+04
2.3526708295e+04
2.0102007492e+04
1.7959123397e+04
1.6901996889e+04
1.6465411831e+04
1.6304367693e+04
1.6248814986e+04
1.6230466017e+04
1.6224607477e+04
1.6222794076e+04
1.6222249729e+04
1.6222091331e+04
1.6222046675e+04
1.6222034482e+04
1.6222031259e+04
1.6222030435e+04
1.6222030230e+04
1.6222030181e+04
1.6222030170e+04
1.6222030167e+04
1.6222030167e+04
1.6222030167e+04
1.6222030166e+04
1.6222030166e+04
1.6222030166e+04
1.6222030166e+04
1.6222030166e+04
1.6222030166e+04
1.6222030166e+04
1.6222030166e+04
1.6222030166e+04
1.6222030166e+04
1.6222030166e+04
1.6222030166e+04
1.6222030166e+04
1.2977624132e+05
1.2977624132e+05
1.2977624132e+05
1.2977624132e+05
1.2977624132e+05
1.2977624132e+05
1.2977624132e+05
1.2977624132e+05
1.2977624132e+05
1.2977624132e+05
1.2977624132e+05
1.2977624132e+05
1.2977624132e+05
1.2977624132e+05
1.2977624132e+05
1.2977624132e+05
1.2977624130e+05
1.2977624123e+05
1.2977624100e+05
1.2977624017e+05
1.2977623737e+05
1.2977622819e+05
1.2977619941e+05
1.2977611279e+05
1.2977586303e+05
1.2977517424e+05
1.2977336031e+05
1.2976880672e+05
1.2975793181e+05
1.2973327617e+05
1.2968032825e+05
1.2957287511e+05
1.2936726310e+05
1.2899703706e+05
1.2837068158e+05
1.2737574157e+05
1.2589138225e+05
1.2380817855e+05
1.2104999679e+05
1.1759082350e+05
1.1346103914e+05
1.0874209976e+05
1.0355307160e+05
9.8034519214e+04
9.2334487201e+04
8.6599043743e+04
8.0967574468e+04
7.5571421964e+04
7.0533432884e+04
6.5964848514e+04
6.1954391155e+04
5.8543705307e+04
5.5688608126e+04
5.3244348993e+04
5.0975993554e+04
4.8667583997e+04
4.6232032572e+04
4.3746299631e+04
4.1396624457e+04
3.9371905800e+04
3.7732099678e+04
3.6259755070e+04
3.4404463023e+04
3.1575879614e+04
2.7702666994e+04
2.3526708295e+04
2.0102007492e+04
1.7959123397e+04
1.6901996889e+04