# vtk DataFile Version 2.0
Blank
ASCII
DATASET STRUCTURED_GRID
DIMENSIONS 101 11 2
POINTS 2222 float
0.0000000000e+00 0.0000000000e+00 0.0000000000e+00
1.0000000000e-02 0.0000000000e+00 0.0000000000e+00
2.0000000000e-02 0.0000000000e+00 0.0000000000e+00
3.0000000000e-02 0.0000000000e+00 0.0000000000e+00
4.0000000000e-02 0.0000000000e+00 0.0000000000e+00
5.0000000000e-02 0.0000000000e+00 0.0000000000e+00
6.0000000000e-02 0.0000000000e+00 0.0000000000e+00
7.0000000000e-02 0.0000000000e+00 0.0000000000e+00
8.0000000000e-02 0.0000000000e+00 0.0000000000e+00
9.0000000000e-02 0.0000000000e+00 0.0000000000e+00
1.0000000000e-01 0.0000000000e+00 0.0000000000e+00
1.1000000000e-01 0.0000000000e+00 0.0000000000e+00
1.2000000000e-01 0.0000000000e+00 0.0000000000e+00
1.3000000000e-01 0.0000000000e+00 0.0000000000e+00
1.4000000000e-01 0.0000000000e+00 0.0000000000e+00
1.5000000000e-01 0.0000000000e+00 0.0000000000e+00
1.6000000000e-01 0.0000000000e+00 0.0000000000e+00
1.7000000000e-01 0.0000000000e+00 0.0000000000e+00
1.8000000000e-01 0.0000000000e+00 0.0000000000e+00
1.9000000000e-01 0.0000000000e+00 0.0000000000e+00
2.0000000000e-01 0.0000000000e+00 0.0000000000e+00
2.1000000000e-01 0.0000000000e+00 0.0000000000e+00
2.2000000000e-01 0.0000000000e+00 0.0000000000e+00
2.3000000000e-01 0.0000000000e+00 0.0000000000e+00
2.4000000000e-01 0.0000000000e+00 0.0000000000e+00
2.5000000000e-01 0.0000000000e+00 0.0000000000e+00
2.6000000000e-01 0.0000000000e+00 0.0000000000e+00
2.7000000000e-01 0.0000000000e+00 0.0000000000e+00
2.8000000000e-01 0.0000000000e+00 0.0000000000e+00
2.9000000000e-01 0.0000000000e+00 0.0000000000e+00
3.0000000000e-01 0.0000000000e+00 0.0000000000e+00
3.1000000000e-01 0.0000000000e+00 0.0000000000e+00
3.2000000000e-01 0.0000000000e+00 0.0000000000e+00
3.3000000000e-01 0.0000000000e+00 0.0000000000e+00
3.4000000000e-01 0.0000000000e+00 0.0000000000e+00
3.5000000000e-01 0.0000000000e+00 0.0000000000e+00
3.6000000000e-01 0.0000000000e+00 0.0000000000e+00
3.7000000000e-01 0.0000000000e+00 0.0000000000e+00
3.8000000000e-01 0.0000000000e+00 0.0000000000e+00
3.9000000000e-01 0.0000000000e+00 0.0000000000e+00
4.0000000000e-01 0.0000000000e+00 0.0000000000e+00
4.1000000000e-01 0.0000000000e+00 0.0000000000e+00
4.2000000000e-01 0.0000000000e+00 0.0000000000e+00
4.3000000000e-01 0.0000000000e+00 0.0000000000e+00
4.4000000000e-01 0.0000000000e+00 0.0000000000e+00
4.5000000000e-01 0.0000000000e+00 0.0000000000e+00
4.6000000000e-01 0.0000000000e+00 0.0000000000e+00
4.7000000000e-01 0.0000000000e+00 0.0000000000e+00
4.8000000000e-01 0.0000000000e+00 0.0000000000e+00
4.9000000000e-01 0.0000000000e+00 0.0000000000e+00
5.0000000000e-01 0.0000000000e+00 0.0000000000e+00
5.1000000000e-01 0.0000000000e+00 0.0000000000e+00
5.2000000000e-01 0.0000000000e+00 0.0000000000e+00
5.3000000000e-01 0.0000000000e+00 0.0000000000e+00
5.4000000000e-01 0.0000000000e+00 0.0000000000e+00
5.5000000000e-01 0.0000000000e+00 0.0000000000e+00
5.6000000000e-01 0.0000000000e+00 0.0000000000e+00
5.7000000000e-01 0.0000000000e+00 0.0000000000e+00
5.8000000000e-01 0.0000000000e+00 0.0000000000e+00
5.9000000000e-01 0.0000000000e+00 0.0000000000e+00
6.0000000000e-01 0.0000000000e+00 0.0000000000e+00
6.1000000000e-01 0.0000000000e+00 0.0000000000e+00
6.2000000000e-01 0.0000000000e+00 0.0000000000e+00
6.3000000000e-01 0.0000000000e+00 0.0000000000e+00
6.4000000000e-01 0.0000000000e+00 0.0000000000e+00
6.5000000000e-01 0.0000000000e+00 0.0000000000e+00
6.6000000000e-01 0.0000000000e+00 0.0000000000e+00
6.7000000000e-01 0.0000000000e+00 0.0000000000e+00
6.8000000000e-01 0.0000000000e+00 0.0000000000e+00
6.9000000000e-01 0.0000000000e+00 0.0000000000e+00
7.0000000000e-01 0.0000000000e+00 0.0000000000e+00
7.1000000000e-01 0.0000000000e+00 0.0000000000e+00
7.2000000000e-01 0.0000000000e+00 0.0000000000e+00
7.3000000000e-01 0.0000000000e+00 0.0000000000e+00
7.4000000000e-01 0.0000000000e+00 0.0000000000e+00
7.5000000000e-01 0.0000000000e+00 0.0000000000e+00
7.6000000000e-01 0.0000000000e+00 0.0000000000e+00
7.7000000000e-01 0.0000000000e+00 0.0000000000e+00
7.8000000000e-01 0.0000000000e+00 0.0000000000e+00
7.9000000000e-01 0.0000000000e+00 0.0000000000e+00
8.0000000000e-01 0.0000000000e+00 0.0000000000e+00
8.1000000000e-01 0.0000000000e+00 0.0000000000e+00
8.2000000000e-01 0.0000000000e+00 0.0000000000e+00
8.3000000000e-01 0.0000000000e+00 0.0000000000e+00
8.4000000000e-01 0.0000000000e+00 0.0000000000e+00
8.5000000000e-01 0.0000000000e+00 0.0000000000e+00
8.6000000000e-01 0.0000000000e+00 0.0000000000e+00
8.7000000000e-01 0.0000000000e+00 0.0000000000e+00
8.8000000000e-01 0.0000000000e+00 0.0000000000e+00
8.9000000000e-01 0.0000000000e+00 0.0000000000e+00
9.0000000000e-01 0.0000000000e+00 0.0000000000e+00
9.1000000000e-01 0.0000000000e+00 0.0000000000e+00
9.2000000000e-01 0.0000000000e+00 0.0000000000e+00
9.3000000000e-01 0.0000000000e+00 0.0000000000e+00
9.4000000000e-01 0.0000000000e+00 0.0000000000e+00
9.5000000000e-01 0.0000000000e+00 0.0000000000e+00
9.6000000000e-01 0.0000000000e+00 0.0000000000e+00
9.7000000000e-01 0.0000000000e+00 0.0000000000e+00
9.8000000000e-01 0.0000000000e+00 0.0000000000e+00
9.9000000000e-01 0.0000000000e+00 0.0000000000e+00
1.0000000000e+00 0.0000000000e+00 0.0000000000e+00
0.0000000000e+00 1.0000000000e-03 0.0000000000e+00
1.0000000000e-02 1.0000000000e-03 0.0000000000e+00
2.0000000000e-02 1.0000000000e-03 0.0000000000e+00
3.0000000000e-02 1.0000000000e-03 0.0000000000e+00
4.0000000000e-02 1.0000000000e-03 0.0000000000e+00
5.0000000000e-02 1.0000000000e-03 0.0000000000e+00
6.0000000000e-02 1.0000000000e-03 0.0000000000e+00
7.0000000000e-02 1.0000000000e-03 0.0000000000e+00
8.0000000000e-02 1.0000000000e-03 0.0000000000e+00
9.0000000000e-02 1.0000000000e-03 0.0000000000e+00
1.0000000000e-01 1.0000000000e-03 0.0000000000e+00
1.1000000000e-01 1.0000000000e-03 0.0000000000e+00
1.2000000000e-01 1.0000000000e-03 0.0000000000e+00
1.3000000000e-01 1.0000000000e-03 0.0000000000e+00
1.4000000000e-01 1.0000000000e-03 0.0000000000e+00
1.5000000000e-01 1.0000000000e-03 0.0000000000e+00
1.6000000000e-01 1.0000000000e-03 0.0000000000e+00
1.7000000000e-01 1.0000000000e-03 0.0000000000e+00
1.8000000000e-01 1.0000000000e-03 0.0000000000e+00
1.9000000000e-01 1.0000000000e-03 0.0000000000e+00
2.0000000000e-01 1.0000000000e-03 0.0000000000e+00
2.1000000000e-01 1.0000000000e-03 0.0000000000e+00
2.2000000000e-01 1.0000000000e-03 0.0000000000e+00
2.3000000000e-01 1.0000000000e-03 0.0000000000e+00
2.4000000000e-01 1.0000000000e-03 0.0000000000e+00
2.5000000000e-01 1.0000000000e-03 0.0000000000e+00
2.6000000000e-01 1.0000000000e-03 0.0000000000e+00
2.7000000000e-01 1.0000000000e-03 0.0000000000e+00
2.8000000000e-01 1.0000000000e-03 0.0000000000e+00
2.9000000000e-01 1.0000000000e-03 0.0000000000e+00
3.0000000000e-01 1.0000000000e-03 0.0000000000e+00
3.1000000000e-01 1.0000000000e-03 0.0000000000e+00
3.2000000000e-01 1.0000000000e-03 0.0000000000e+00
3.3000000000e-01 1.0000000000e-03 0.0000000000e+00
3.4000000000e-01 1.0000000000e-03 0.0000000000e+00
3.5000000000e-01 1.0000000000e-03 0.0000000000e+00
3.6000000000e-01 1.0000000000e-03 0.0000000000e+00
3.7000000000e-01 1.0000000000e-03 0.0000000000e+00
3.8000000000e-01 1.0000000000e-03 0.0000000000e+00
3.9000000000e-01 1.0000000000e-03 0.0000000000e+00
4.0000000000e-01 1.0000000000e-03 0.0000000000e+00
4.1000000000e-01 1.0000000000e-03 0.0000000000e+00
4.2000000000e-01 1.0000000000e-03 0.0000000000e+00
4.3000000000e-01 1.0000000000e-03 0.0000000000e+00
4.4000000000e-01 1.0000000000e-03 0.0000000000e+00
4.5000000000e-01 1.0000000000e-03 0.0000000000e+00
4.6000000000e-01 1.0000000000e-03 0.0000000000e+00
4.7000000000e-01 1.0000000000e-03 0.0000000000e+00
4.8000000000e-01 1.0000000000e-03 0.0000000000e+00
4.9000000000e-01 1.0000000000e-03 0.0000000000e+00
5.0000000000e-01 1.0000000000e-03 0.0000000000e+00
5.1000000000e-01 1.0000000000e-03 0.0000000000e+00
5.2000000000e-01 1.0000000000e-03 0.0000000000e+00
5.3000000000e-01 1.0000000000e-03 0.0000000000e+00
5.4000000000e-01 1.0000000000e-03 0.0000000000e+00
5.5000000000e-01 1.0000000000e-03 0.0000000000e+00
5.6000000000e-01 1.0000000000e-03 0.0000000000e+00
5.7000000000e-01 1.0000000000e-03 0.0000000000e+00
5.8000000000e-01 1.0000000000e-03 0.0000000000e+00
5.9000000000e-01 1.0000000000e-03 0.0000000000e+00
6.0000000000e-01 1.0000000000e-03 0.0000000000e+00
6.1000000000e-01 1.0000000000e-03 0.0000000000e+00
6.2000000000e-01 1.0000000000e-03 0.0000000000e+00
6.3000000000e-01 1.0000000000e-03 0.0000000000e+00
6.4000000000e-01 1.0000000000e-03 0.0000000000e+00
6.5000000000e-01 1.0000000000e-03 0.0000000000e+00
6.6000000000e-01 1.0000000000e-03 0.0000000000e+00
6.7000000000e-01 1.0000000000e-03 0.0000000000e+00
6.8000000000e-01 1.0000000000e-03 0.0000000000e+00
6.9000000000e-01 1.0000000000e-03 0.0000000000e+00
7.0000000000e-01 1.0000000000e-03 0.0000000000e+00
7.1000000000e-01 1.0000000000e-03 0.0000000000e+00
7.2000000000e-01 1.0000000000e-03 0.0000000000e+00
7.3000000000e-01 1.0000000000e-03 0.0000000000e+00
7.4000000000e-01 1.0000000000e-03 0.0000000000e+00
7.5000000000e-01 1.0000000000e-03 0.0000000000e+00
7.6000000000e-01 1.0000000000e-03 0.0000000000e+00
7.7000000000e-01 1.0000000000e-03 0.0000000000e+00
7.8000000000e-01 1.0000000000e-03 0.0000000000e+00
7.9000000000e-01 1.0000000000e-03 0.0000000000e+00
8.0000000000e-01 1.0000000000e-03 0.0000000000e+00
8.1000000000e-01 1.0000000000e-03 0.0000000000e+00
8.2000000000e-01 1.0000000000e-03 0.0000000000e+00
8.3000000000e-01 1.0000000000e-03 0.0000000000e+00
8.4000000000e-01 1.0000000000e-03 0.0000000000e+00
8.5000000000e-01 1.0000000000e-03 0.0000000000e+00
8.6000000000e-01 1.0000000000e-03 0.0000000000e+00
8.7000000000e-01 1.0000000000e-03 0.0000000000e+00
8.8000000000e-01 1.0000000000e-03 0.0000000000e+00
8.9000000000e-01 1.0000000000e-03 0.0000000000e+00
9.0000000000e-01 1.0000000000e-03 0.0000000000e+00
9.1000000000e-01 1.0000000000e-03 0.0000000000e+00
9.2000000000e-01 1.0000000000e-03 0.0000000000e+00
[...]
CELL_DATA 1000

SCALARS massDensity float
LOOKUP_TABLE default
9.9999999996e+02
9.9999999996e+02
9.9999999996e+02
9.9999999996e+02
9.9999999995e+02
9.9999999994e+02
9.9999999991e+02
9.9999999982e+02
9.9999999950e+02
9.9999999853e+02
9.9999999560e+02
9.9999998703e+02
9.9999996274e+02
9.9999989589e+02
9.9999971751e+02
9.9999925649e+02
9.9999810334e+02
9.9999531440e+02
9.9998879874e+02
9.9997411018e+02
9.9994219413e+02
9.9987543370e+02
9.9974117331e+02
9.9948192935e+02
9.9900197102e+02
9.9815113143e+02
9.9670866562e+02
9.9437230936e+02
9.9075932849e+02
9.8542574842e+02
9.7790601380e+02
9.6776857681e+02
9.5467601253e+02
9.3843487161e+02
9.1902287711e+02
8.9658834717e+02
8.7142528141e+02
8.4393351778e+02
8.1457491086e+02
7.8383429443e+02
7.5219012930e+02
7.2009612311e+02
6.8797272482e+02
6.5620632036e+02
6.2515377411e+02
5.9515014786e+02
5.6651752428e+02
5.3957249761e+02
5.1462878305e+02
4.9198945830e+02
4.7192111883e+02
4.5460158759e+02
4.4003761110e+02
4.2796336473e+02
4.1777684173e+02
4.0854365363e+02
3.9915134499e+02
3.8860555720e+02
3.7632223998e+02
3.6229838222e+02
3.4708195023e+02
3.3157113395e+02
3.1674990124e+02
3.0347118492e+02
2.9234816746e+02
2.8373086424e+02
2.7762432392e+02
2.7329006681e+02
2.6845971262e+02
2.5902955740e+02
2.4083896262e+02
2.1355503444e+02
1.8281429926e+02
1.5672458603e+02
1.3978875429e+02
1.3107295958e+02
1.2729814869e+02
1.2582965180e+02
1.2529119221e+02
1.2510016511e+02
1.2503385330e+02
1.2501124395e+02
1.2500366767e+02
1.2500117393e+02
1.2500036839e+02
1.2500011326e+02
1.2500003410e+02
1.2500001005e+02
1.2500000290e+02
1.2500000082e+02
1.2500000023e+02
1.2500000007e+02
1.2500000002e+02
1.2500000001e+02
1.2500000001e+02
1.2500000001e+02
1.2500000000e+02
1.2500000000e+02
1.2500000000e+02
1.2500000000e+02
9.9999999996e+02
9.9999999996e+02
9.9999999996e+02
9.9999999996e+02
9.9999999995e+02
9.9999999994e+02
9.9999999991e+02
9.9999999982e+02
9.9999999950e+02
9.9999999853e+02
9.9999999560e+02
9.9999998703e+02
9.9999996274e+02
9.9999989589e+02
9.9999971751e+02
9.9999925649e+02
9.9999810334e+02
9.9999531440e+02
9.9998879874e+02
9.9997411018e+02
9.9994219413e+02
9.9987543370e+02
9.9974117331e+02
9.9948192935e+02
9.9900197102e+02
9.9815113143e+02
9.9670866562e+02
9.9437230936e+02
9.9075932849e+02
9.8542574842e+02
9.7790601380e+02
9.6776857681e+02
9.5467601253e+02
9.3843487161e+02
9.1902287711e+02
8.9658834717e+02
8.7142528141e+02
8.4393351778e+02
8.1457491086e+02
7.8383429443e+02
7.5219012930e+02
7.2009612311e+02
6.8797272482e+02
6.5620632036e+02
6.2515377411e+02
5.9515014786e+02
5.6651752428e+02
5.3957249761e+02
5.1462878305e+02
4.9198945830e+02
4.7192111883e+02
4.5460158759e+02
4.4003761110e+02
4.2796336473e+02
4.1777684173e+02
4.0854365363e+02
3.9915134499e+02
3.8860555720e+02
3.7632223998e+02
3.6229838222e+02
3.4708195023e+02
3.3157113395e+02
3.1674990124e+02
3.0347118492e+02
2.9234816746e+02
2.8373086424e+02
2.7762432392e+02
2.7329006681e+02
2.6845971262e+02
2.5902955740e+02
2.4083896262e+02
2.1355503444e+02
1.8281429926e+02
1.5672458603e+02
1.3978875429e+02
1.3107295958e+02
1.2729814869e+02
1.2582965180e+02
1.2529119221e+02
1.2510016511e+02
1.2503385330e+02
1.2501124395e+02
1.2500366767e+02
1.2500117393e+02
1.2500036839e+02
1.2500011326e+02
1.2500003410e+02
1.2500001005e+02
1.2500000290e+02
1.2500000082e+02
1.2500000023e+02
1.2500000007e+02
1.2500000002e+02
1.2500000001e+02
1.2500000001e+02
1.2500000001e+02
1.2500000000e+02
1.2500000000e+02
1.2500000000e+02
1.2500000000e+02
9.9999999996e+02
9.9999999996e+02
9.9999999996e+02
9.9999999996e+02
9.9999999995e+02
9.9999999994e+02
9.9999999991e+02
9.9999999982e+02
9.9999999950e+02
9.9999999853e+02
9.9999999560e+02
9.9999998703e+02
9.9999996274e+02
9.9999989589e+02
9.9999971751e+02
9.9999925649e+02
9.9999810334e+02
9.9999531440e+02
9.9998879874e+02
9.9997411018e+02
9.9994219413e+02
9.9987543370e+02
9.9974117331e+02
9.9948192935e+02
9.9900197102e+02
9.9815113143e+02
9.9670866562e+02
9.9437230936e+02
9.9075932849e+02
9.8542574842e+02
9.7790601380e+02
9.6776857681e+02
9.5467601253e+02
9.3843487161e+02
9.1902287711e+02
8.9658834717e+02
8.7142528141e+02
8.4393351778e+02
8.1457491086e+02
7.8383429443e+02
7.5219012930e+02
7.2009612311e+02
6.8797272482e+02
6.5620632036e+02
6.2515377411e+02
5.9515014786e+02
5.6651752428e+02
5.3957249761e+02
5.1462878305e+02
4.9198945830e+02
4.7192111883e+02
4.5460158759e+02
4.4003761110e+02
4.2796336473e+02
4.1777684173e+02
4.0854365363e+02
3.9915134499e+02
3.8860555720e+02
3.7632223998e+02
3.6229838222e+02
3.4708195023e+02
3.3157113395e+02
3.1674990124e+02
3.0347118492e+02
2.9234816746e+02
2.8373086424e+02
2.7762432392e+02
2.7329006681e+02
2.6845971262e+02
2.5902955740e+02
2.4083896262e+02
2.1355503444e+02
1.8281429926e+02
1.5672458603e+02
1.3978875429e+02
1.3107295958e+02
1.2729814869e+02
1.2582965180e+02
1.2529119221e+02
1.2510016511e+02
1.2503385330e+02
1.2501124395e+02
1.2500366767e+02
1.2500117393e+02
1.2500036839e+02
1.2500011326e+02
1.2500003410e+02
1.2500001005e+02
1.2500000290e+02
1.2500000082e+02
1.2500000023e+02
1.2500000007e+02
1.2500000002e+02
1.2500000001e+02
1.2500000001e+02
1.2500000001e+02
1.2500000000e+02
1.2500000000e+02
1.2500000000e+02
1.2500000000e+02
9.9999999996e+02
9.9999999996e+02
9.9999999996e+02
9.9999999996e+02
9.9999999995e+02
9.9999999994e+02
9.9999999991e+02
9.9999999982e+02
9.9999999950e+02
9.9999999853e+02
9.9999999560e+02
9.9999998703e+02
9.9999996274e+02
9.9999989589e+02
9.9999971751e+02
9.9999925649e+02
9.9999810334e+02
9.9999531440e+02
9.9998879874e+02
9.9997411018e+02
9.9994219413e+02
9.9987543370e+02
9.9974117331e+02
9.9948192935e+02
9.9900197102e+02
9.9815113143e+02
9.9670866562e+02
9.9437230936e+02
9.9075932849e+02
9.8542574842e+02
9.7790601380e+02
9.6776857681e+02
9.5467601253e+02
9.3843487161e+02
9.1902287711e+02
8.9658834717e+02
8.7142528141e+02
8.4393351778e+02
8.1457491086e+02
7.8383429443e+02
7.5219012930e+02
7.2009612311e+02
6.8797272482e+02
6.5620632036e+02
6.2515377411e+02
5.9515014786e+02
5.6651752428e+02
5.3957249761e+02
5.1462878305e+02
4.9198945830e+02
4.7192111883e+02
4.5460158759e+02
4.4003761110e+02
4.2796336473e+02
4.1777684173e+02
4.0854365363e+02
3.9915134499e+02
3.8860555720e+02
3.7632223998e+02
3.6229838222e+02
3.4708195023e+02
3.3157113395e+02
3.1674990124e+02
3.0347118492e+02
2.9234816746e+02
2.8373086424e+02
2.7762432392e+02
2.7329006681e+02
2.6845971262e+02
2.5902955740e+02
2.4083896262e+02
2.1355503444e+02
1.8281429926e+02
1.5672458603e+02
1.3978875429e+02
1.3107295958e+02
1.2729814869e+02
1.2582965180e+02
1.2529119221e+02
1.2510016511e+02
1.2503385330e+02
1.2501124395e+02
1.2500366767e+02
1.2500117393e+02
1.2500036839e+02
1.2500011326e+02
1.2500003410e+02
1.2500001005e+02
1.2500000290e+02
1.2500000082e+02
1.2500000023e+02
1.2500000007e+02
1.2500000002e+02
1.2500000001e+02
1.2500000001e+02
1.2500000001e+02
1.2500000000e+02
1.2500000000e+02
1.2500000000e+02
1.2500000000e+02
9.9999999996e+02
9.9999999996e+02
9.9999999996e+02
9.9999999996e+02
9.9999999995e+02
9.9999999994e+02
9.9999999991e+02
9.9999999982e+02
9.9999999950e+02
9.9999999853e+02
9.9999999560e+02
9.9999998703e+02
9.9999996274e+02
9.9999989589e+02
9.9999971751e+02
9.9999925649e+02
9.9999810334e+02
9.9999531440e+02
9.9998879874e+02
9.9997411018e+02
9.9994219413e+02
9.9987543370e+02
9.9974117331e+02
9.9948192935e+02
9.9900197102e+02
9.9815113143e+02
9.9670866562e+02
9.9437230936e+02
9.9075932849e+02
9.8542574842e+02
9.7790601380e+02
9.6776857681e+02
9.5467601253e+02
9.3843487161e+02
9.1902287711e+02
8.9658834717e+02
8.7142528141e+02
8.4393351778e+02
8.1457491086e+02
7.8383429443e+02
7.5219012930e+02
7.2009612311e+02
6.8797272482e+02
6.5620632036e+02
6.2515377411e+02
5.9515014786e+02
5.6651752428e+02
5.3957249761e+02
5.1462878305e+02
4.9198945830e+02
4.7192111883e+02
4.5460158759e+02
4.4003761110e+02
4.2796336473e+02
4.1777684173e+02
4.0854365363e+02
3.9915134499e+02
3.8860555720e+02
3.7632223998e+02
3.6229838222e+02
3.4708195023e+02
3.3157113395e+02
3.1674990124e+02
3.0347118492e+02
2.9234816746e+02
2.8373086424e+02
2.7762432392e+02
2.7329006681e+02
2.6845971262e+02
2.5902955740e+02
2.4083896262e+02
2.1355503444e+02
1.8281429926e+02
1.5672458603e+02
1.3978875429e+02
1.3107295958e+02
1.2729814869e+02
1.2582965180e+02
1.2529119221e+02
1.2510016511e+02
1.2503385330e+02
1.2501124395e+02
1.2500366767e+02
1.2500117393e+02
1.2500036839e+02
1.2500011326e+02
1.2500003410e+02
1.2500001005e+02
1.2500000290e+02
1.2500000082e+02
1.2500000023e+02
1.2500000007e+02
1.2500000002e+02
1.2500000001e+02
1.2500000001e+02
1.2500000001e+02
1.2500000000e+02
1.2500000000e+02
1.2500000000e+02
1.2500000000e+02
9.9999999996e+02
9.9999999996e+02
9.9999999996e+02
9.9999999996e+02
9.9999999995e+02
9.9999999994e+02
9.9999999991e+02
9.9999999982e+02
9.9999999950e+02
9.9999999853e+02
9.9999999560e+02
9.9999998703e+02
9.9999996274e+02
9.9999989589e+02
9.9999971751e+02
9.9999925649e+02
9.9999810334e+02
9.9999531440e+02
9.9998879874e+02
9.9997411018e+02
9.9994219413e+02
9.9987543370e+02
9.9974117331e+02
9.9948192935e+02
9.9900197102e+02
9.9815113143e+02
9.9670866562e+02
9.9437230936e+02
9.9075932849e+02
9.8542574842e+02
9.7790601380e+02
9.6776857681e+02
9.5467601253e+02
9.3843487161e+02
9.1902287711e+02
8.9658834717e+02
8.7142528141e+02
8.4393351778e+02
8.1457491086e+02
7.8383429443e+02
7.5219012930e+02
7.2009612311e+02
6.8797272482e+02
6.5620632036e+02
6.2515377411e+02
5.9515014786e+02
5.6651752428e+02
5.3957249761e+02
5.1462878305e+02
4.9198945830e+02
4.7192111883e+02
4.5460158759e+02
4.4003761110e+02
4.2796336473e+02
4.1777684173e+02
4.0854365363e+02
3.9915134499e+02
3.8860555720e+02
3.7632223998e+02
3.6229838222e+02
3.4708195023e+02
3.3157113395e+02
3.1674990124e+02
3.0347118492e+02
2.9234816746e+02
2.8373086424e+02
2.7762432392e+02
2.7329006681e+02
2.6845971262e+02
2.5902955740e+02
2.4083896262e+02
2.1355503444e+02
1.8281429926e+02
1.5672458603e+02
1.3978875429e+02
1.3107295958e+02
1.2729814869e+02
1.2582965180e+02
1.2529119221e+02
1.2510016511e+02
1.2503385330e+02
1.2501124395e+02
1.2500366767e+02
1.2500117393e+02
1.2500036839e+02
1.2500011326e+02
1.2500003410e+02
1.2500001005e+02
1.2500000290e+02
1.2500000082e+02
1.2500000023e+02
1.2500000007e+02
1.2500000002e+02
1.2500000001e+02
1.2500000001e+02
1.2500000001e+02
1.2500000000e+02
1.2500000000e+02
1.2500000000e+02
1.2500000000e+02
9.9999999996e+02
9.9999999996e+02
9.9999999996e+02
9.9999999996e+02
9.9999999995e+02
9.9999999994e+02
9.9999999991e+02
9.9999999982e+02
9.9999999950e+02
9.9999999853e+02
9.9999999560e+02
9.9999998703e+02
9.9999996274e+02
9.9999989589e+02
9.9999971751e+02
9.9999925649e+02
9.9999810334e+02
9.9999531440e+02
9.9998879874e+02
9.9997411018e+02
9.9994219413e+02
9.9987543370e+02
9.9974117331e+02
9.9948192935e+02
9.9900197102e+02
9.9815113143e+02
9.9670866562e+02
9.9437230936e+02
9.9075932849e+02
9.8542574842e+02
9.7790601380e+02
9.6776857681e+02
9.5467601253e+02
9.3843487161e+02
9.1902287711e+02
8.9658834717e+02
8.7142528141e+02
8.4393351778e+02
8.1457491086e+02
7.8383429443e+02
7.5219012930e+02
7.2009612311e+02
6.8797272482e+02
6.5620632036e+02
6.2515377411e+02
5.9515014786e+02
5.6651752428e+02
5.3957249761e+02
5.1462878305e+02
4.9198945830e+02
4.7192111883e+02
4.5460158759e+02
4.4003761110e+02
4.2796336473e+02
4.1777684173e+02
4.0854365363e+02
3.9915134499e+02
3.8860555720e+02
3.7632223998e+02
3.6229838222e+02
3.4708195023e+02
3.3157113395e+02
3.1674990124e+02
3.0347118492e+02
2.9234816746e+02
2.8373086424e+02
2.7762432392e+02
2.7329006681e+02
2.6845971262e+02
2.5902955740e+02
2.4083896262e+02
2.1355503444e+02
1.8281429926e+02
1.5672458603e+02
1.3978875429e+02
1.3107295958e+02
1.2729814869e+02
1.2582965180e+02
1.2529119221e+02
1.2510016511e+02
1.2503385330e+02
1.2501124395e+02
1.2500366767e+02
1.2500117393e+02
1.2500036839e+02
1.2500011326e+02
1.2500003410e+02
1.2500001005e+02
1.2500000290e+02
1.2500000082e+02
1.2500000023e+02
1.2500000007e+02
1.2500000002e+02
1.2500000001e+02
1.2500000001e+02
1.2500000001e+02
1.2500000000e+02
1.2500000000e+02
1.2500000000e+02
1.2500000000e+02
9.9999999996e+02
9.9999999996e+02
9.9999999996e+02
9.9999999996e+02
9.9999999995e+02
9.9999999994e+02
9.9999999991e+02
9.9999999982e+02
9.9999999950e+02
9.9999999853e+02
9.9999999560e+02
9.9999998703e+02
9.9999996274e+02
9.9999989589e+02
9.9999971751e+02
9.9999925649e+02
9.9999810334e+02
9.9999531440e+02
9.9998879874e+02
9.9997411018e+02
9.9994219413e+02
9.9987543370e+02
9.9974117331e+02
9.9948192935e+02
9.9900197102e+02
9.9815113143e+02
9.9670866562e+02
9.9437230936e+02
9.9075932849e+02
9.8542574842e+02
9.7790601380e+02
9.6776857681e+02
9.5467601253e+02
9.3843487161e+02
9.1902287711e+02
8.9658834717e+02
8.7142528141e+02
8.4393351778e+02
8.1457491086e+02
7.8383429443e+02
7.5219012930e+02
7.2009612311e+02
6.8797272482e+02
6.5620632036e+02
6.2515377411e+02
5.9515014786e+02
5.6651752428e+02
5.3957249761e+02
5.1462878305e+02
4.9198945830e+02
4.7192111883e+02
4.5460158759e+02
4.4003761110e+02
4.2796336473e+02
4.1777684173e+02
4.0854365363e+02
3.9915134499e+02
3.8860555720e+02
3.7632223998e+02
3.6229838222e+02
3.4708195023e+02
3.3157113395e+02
3.1674990124e+02
3.0347118492e+02
2.9234816746e+02
2.8373086424e+02
2.7762432392e+02
2.7329006681e+02
2.6845971262e+02
2.5902955740e+02
2.4083896262e+02
2.1355503444e+02
1.8281429926e+02
1.5672458603e+02
1.3978875429e+02
1.3107295958e+02
1.2729814869e+02
1.2582965180e+02
1.2529119221e+02
1.2510016511e+02
1.2503385330e+02
1.2501124395e+02
1.2500366767e+02
1.2500117393e+02
1.2500036839e+02
1.2500011326e+02
1.2500003410e+02
1.2500001005e+02
1.2500000290e+02
1.2500000082e+02
1.2500000023e+02
1.2500000007e+02
1.2500000002e+02
1.2500000001e+02
1.2500000001e+02
1.2500000001e+02
1.2500000000e+02
1.2500000000e+02
1.2500000000e+02
1.2500000000e+02
9.9999999996e+02
9.9999999996e+02
9.9999999996e+02
9.9999999996e+02
9.9999999995e+02
9.9999999994e+02
9.9999999991e+02
9.9999999982e+02
9.9999999950e+02
9.9999999853e+02
9.9999999560e+02
9.9999998703e+02
9.9999996274e+02
9.9999989589e+02
9.9999971751e+02
9.9999925649e+02
9.9999810334e+02
9.9999531440e+02
9.9998879874e+02
9.9997411018e+02
9.9994219413e+02
9.9987543370e+02
9.9974117331e+02
9.9948192935e+02
9.9900197102e+02
9.9815113143e+02
9.9670866562e+02
9.9437230936e+02
9.9075932849e+02
9.8542574842e+02
9.7790601380e+02
9.6776857681e+02
9.5467601253e+02
9.3843487161e+02
9.1902287711e+02
8.9658834717e+02
8.7142528141e+02
8.4393351778e+02
8.1457491086e+02
7.8383429443e+02
7.5219012930e+02
7.2009612311e+02
6.8797272482e+02
6.5620632036e+02
6.2515377411e+02
5.9515014786e+02
5.6651752428e+02
5.3957249761e+02
5.1462878305e+02
4.9198945830e+02
4.7192111883e+02
4.5460158759e+02
4.4003761110e+02
4.2796336473e+02
4.1777684173e+02
4.0854365363e+02
3.9915134499e+02
3.8860555720e+02
3.7632223998e+02
3.6229838222e+02
3.4708195023e+02
3.3157113395e+02
3.1674990124e+02
3.0347118492e+02
2.9234816746e+02
2.8373086424e+02
2.7762432392e+02
2.7329006681e+02
2.6845971262e+02
2.5902955740e+02
2.4083896262e+02
2.1355503444e+02
1.8281429926e+02
1.5672458603e+02
1.3978875429e+02
1.3107295958e+02
1.2729814869e+02
1.2582965180e+02
1.2529119221e+02
1.2510016511e+02
1.2503385330e+02
1.2501124395e+02
1.2500366767e+02
1.2500117393e+02
1.2500036839e+02
1.2500011326e+02
1.2500003410e+02
1.2500001005e+02
1.2500000290e+02
1.2500000082e+02
1.2500000023e+02
1.2500000007e+02
1.2500000002e+02
1.2500000001e+02
1.2500000001e+02
1.2500000001e+02
1.2500000000e+02
1.2500000000e+02
1.2500000000e+02
1.2500000000e+02
9.9999999996e+02
9.9999999996e+02
9.9999999996e+02
9.9999999996e+02
9.9999999995e+02
9.9999999994e+02
9.9999999991e+02
9.9999999982e+02
9.9999999950e+02
9.9999999853e+02
9.9999999560e+02
9.9999998703e+02
9.9999996274e+02
9.9999989589e+02
9.9999971751e+02
9.9999925649e+02
9.9999810334e+02
9.9999531440e+02
9.9998879874e+02
9.9997411018e+02
9.9994219413e+02
9.9987543370e+02
9.9974117331e+02
9.9948192935e+02
9.9900197102e+02
9.9815113143e+02
9.9670866562e+02
9.9437230936e+02
9.9075932849e+02
9.8542574842e+02
9.7790601380e+02
9.6776857681e+02
9.5467601253e+02
9.3843487161e+02
9.1902287711e+02
8.9658834717e+02
8.7142528141e+02
8.4393351778e+02
8.1457491086e+02
7.8383429443e+02
7.5219012930e+02
7.2009612311e+02
6.8797272482e+02
6.5620632036e+02
6.2515377411e+02
5.9515014786e+02
5.6651752428e+02
5.3957249761e+02
5.1462878305e+02
4.9198945830e+02
4.7192111883e+02
4.5460158759e+02
4.4003761110e+02
4.2796336473e+02
4.1777684173e+02
4.0854365363e+02
3.9915134499e+02
3.8860555720e+02
3.7632223998e+02
3.6229838222e+02
3.4708195023e+02
3.3157113395e+02
3.1674990124e+02
3.0347118492e+02
2.9234816746e+02
2.8373086424e+02
2.7762432392e+02
2.7329006681e+02
2.6845971262e+02
2.5902955740e+02
2.4083896262e+02
2.1355503444e+02
1.8281429926e+02
1.5672458603e+02
1.3978875429e+02
1.3107295958e+02
1.2729814869e+02
1.2582965180e+02
1.2529119221e+02
1.2510016511e+02
1.2503385330e+02
1.2501124395e+02
1.2500366767e+02
1.2500117393e+02
1.2500036839e+02
1.2500011326e+02
1.2500003410e+02
1.2500001005e+02
1.2500000290e+02
1.2500000082e+02
1.2500000023e+02
1.2500000007e+02
1.2500000002e+02
1.2500000001e+02
1.2500000001e+02
1.2500000001e+02
1.2500000000e+02
1.2500000000e+02
1.2500000000e+02
1.2500000000e+02

SCALARS molarDensity float
LOOKUP_TABLE default
1.2977624132e+05
1.2977624132e+05
1.2977624132e+05
1.2977624132e+05
1.2977624132e+05
1.2977624132e+05
1.2977624132e+05
1.2977624130e+05
1.2977624126e+05
1.2977624114e+05
1.2977624076e+05
1.2977623964e+05
1.2977623649e+05
1.2977622782e+05
1.2977620467e+05
1.2977614484e+05
1.2977599519e+05
1.2977563325e+05
1.2977478767e+05
1.2977288144e+05
1.2976873950e+05
1.2976007558e+05
1.2974265177e+05
1.2970900807e+05
1.2964672088e+05
1.2953630211e+05
1.2934910432e+05
1.2904590079e+05
1.2857702171e+05
1.2788484974e+05
1.2690896684e+05
1.2559336837e+05
1.2389426459e+05
1.2178655037e+05
1.1926733469e+05
1.1635586571e+05
1.1309029762e+05
1.0952251987e+05
1.0571247021e+05
1.0172306855e+05
9.7616407744e+04
9.3451368251e+04
8.9282514363e+04
8.5159989791e+04
8.1130107055e+04
7.7236349214e+04
7.3520514947e+04
7.0023690664e+04
6.6786589143e+04
6.3848542671e+04
6.1244149005e+04
5.8996485339e+04
5.7106427211e+04
5.5539476900e+04
5.4217508233e+04
5.3019259787e+04
5.1800361274e+04
5.0431768572e+04
4.8837685833e+04
4.7017722284e+04
4.5042990933e+04
4.3030055496e+04
4.1106611624e+04
3.9383349731e+04
3.7939846331e+04
3.6821525109e+04
3.6029041260e+04
3.5466557662e+04
3.4839692451e+04
3.3615882351e+04
3.1255175334e+04
2.7714369686e+04
2.3724952619e+04
2.0339127698e+04
1.8141259111e+04
1.7010156034e+04
1.6520275265e+04
1.6329699258e+04
1.6259819997e+04
1.6235029217e+04
1.6226423520e+04
1.6223489363e+04
1.6222506142e+04
1.6222182514e+04
1.6222077974e+04
1.6222044865e+04
1.6222034591e+04
1.6222031470e+04
1.6222030542e+04
1.6222030272e+04
1.6222030196e+04
1.6222030174e+04
1.6222030169e+04
1.6222030167e+04
1.6222030167e+04
1.6222030167e+04
1.6222030166e+04
1.6222030166e+04
1.6222030166e+04
1.6222030166e+04
1.2977624132e+05
1.2977624132e+05
1.2977624132e+05
1.2977624132e+05
1.2977624132e+05
1.2977624132e+05
1.2977624132e+05
1.2977624130e+05
1.2977624126e+05
1.2977624114e+05
1.2977624076e+05
1.2977623964e+05
1.2977623649e+05
1.2977622782e+05
1.2977620467e+05
1.2977614484e+05
1.2977599519e+05
1.2977563325e+05
1.2977478767e+05
1.2977288144e+05
1.2976873950e+05
1.2976007558e+05
1.2974265177e+05
1.2970900807e+05
1.2964672088e+05
1.2953630211e+05
1.2934910432e+05
1.2904590079e+05
1.2857702171e+05
1.2788484974e+05
1.2690896684e+05
1.2559336837e+05
1.2389426459e+05
1.2178655037e+05
1.1926733469e+05
1.1635586571e+05
1.1309029762e+05
1.0952251987e+05
1.0571247021e+05
1.0172306855e+05
9.7616407744e+04
9.3451368251e+04
8.9282514363e+04
8.5159989791e+04
8.1130107055e+04
7.7236349214e+04
7.3520514947e+04
7.0023690664e+04
6.6786589143e+04
6.3848542671e+04
6.1244149005e+04
5.8996485339e+04
5.7106427211e+04
5.5539476900e+04
5.4217508233e+04
5.3019259787e+04
5.1800361274e+04
5.0431768572e+04
4.8837685833e+04
4.7017722284e+04
4.5042990933e+04
4.3030055496e+04
4.1106611624e+04
3.9383349731e+04
3.7939846331e+04
3.6821525109e+04
3.6029041260e+04
3.5466557662e+04
3.4839692451e+04