# vtk DataFile Version 2.0
Blank
ASCII
DATASET STRUCTURED_GRID
DIMENSIONS 101 11 2
POINTS 2222 float
0.0000000000e+00 0.0000000000e+00 0.0000000000e+00
1.0000000000e-02 0.0000000000e+00 0.0000000000e+00
2.0000000000e-02 0.0000000000e+00 0.0000000000e+00
3.0000000000e-02 0.0000000000e+00 0.0000000000e+00
4.0000000000e-02 0.0000000000e+00 0.0000000000e+00
5.0000000000e-02 0.0000000000e+00 0.0000000000e+00
6.0000000000e-02 0.0000000000e+00 0.0000000000e+00
7.0000000000e-02 0.0000000000e+00 0.0000000000e+00
8.0000000000e-02 0.0000000000e+00 0.0000000000e+00
9.0000000000e-02 0.0000000000e+00 0.0000000000e+00
1.0000000000e-01 0.0000000000e+00 0.0000000000e+00
1.1000000000e-01 0.0000000000e+00 0.0000000000e+00
1.2000000000e-01 0.0000000000e+00 0.0000000000e+00
1.3000000000e-01 0.0000000000e+00 0.0000000000e+00
1.4000000000e-01 0.0000000000e+00 0.0000000000e+00
1.5000000000e-01 0.0000000000e+00 0.0000000000e+00
1.6000000000e-01 0.0000000000e+00 0.0000000000e+00
1.7000000000e-01 0.0000000000e+00 0.0000000000e+00
1.8000000000e-01 0.0000000000e+00 0.0000000000e+00
1.9000000000e-01 0.0000000000e+00 0.0000000000e+00
2.0000000000e-01 0.0000000000e+00 0.0000000000e+00
2.1000000000e-01 0.0000000000e+00 0.0000000000e+00
2.2000000000e-01 0.0000000000e+00 0.0000000000e+00
2.3000000000e-01 0.0000000000e+00 0.0000000000e+00
2.4000000000e-01 0.0000000000e+00 0.0000000000e+00
2.5000000000e-01 0.0000000000e+00 0.0000000000e+00
2.6000000000e-01 0.0000000000e+00 0.0000000000e+00
2.7000000000e-01 0.0000000000e+00 0.0000000000e+00
2.8000000000e-01 0.0000000000e+00 0.0000000000e+00
2.9000000000e-01 0.0000000000e+00 0.0000000000e+00
3.0000000000e-01 0.0000000000e+00 0.0000000000e+00
3.1000000000e-01 0.0000000000e+00 0.0000000000e+00
3.2000000000e-01 0.0000000000e+00 0.0000000000e+00
3.3000000000e-01 0.0000000000e+00 0.0000000000e+00
3.4000000000e-01 0.0000000000e+00 0.0000000000e+00
3.5000000000e-01 0.0000000000e+00 0.0000000000e+00
3.6000000000e-01 0.0000000000e+00 0.0000000000e+00
3.7000000000e-01 0.0000000000e+00 0.0000000000e+00
3.8000000000e-01 0.0000000000e+00 0.0000000000e+00
3.9000000000e-01 0.0000000000e+00 0.0000000000e+00
4.0000000000e-01 0.0000000000e+00 0.0000000000e+00
4.1000000000e-01 0.0000000000e+00 0.0000000000e+00
4.2000000000e-01 0.0000000000e+00 0.0000000000e+00
4.3000000000e-01 0.0000000000e+00 0.0000000000e+00
4.4000000000e-01 0.0000000000e+00 0.0000000000e+00
4.5000000000e-01 0.0000000000e+00 0.0000000000e+00
4.6000000000e-01 0.0000000000e+00 0.0000000000e+00
4.7000000000e-01 0.0000000000e+00 0.0000000000e+00
4.8000000000e-01 0.0000000000e+00 0.0000000000e+00
4.9000000000e-01 0.0000000000e+00 0.0000000000e+00
5.0000000000e-01 0.0000000000e+00 0.0000000000e+00
5.1000000000e-01 0.0000000000e+00 0.0000000000e+00
5.2000000000e-01 0.0000000000e+00 0.0000000000e+00
5.3000000000e-01 0.0000000000e+00 0.0000000000e+00
5.4000000000e-01 0.0000000000e+00 0.0000000000e+00
5.5000000000e-01 0.0000000000e+00 0.0000000000e+00
5.6000000000e-01 0.0000000000e+00 0.0000000000e+00
5.7000000000e-01 0.0000000000e+00 0.0000000000e+00
5.8000000000e-01 0.0000000000e+00 0.0000000000e+00
5.9000000000e-01 0.0000000000e+00 0.0000000000e+00
6.0000000000e-01 0.0000000000e+00 0.0000000000e+00
6.1000000000e-01 0.0000000000e+00 0.0000000000e+00
6.2000000000e-01 0.0000000000e+00 0.0000000000e+00
6.3000000000e-01 0.0000000000e+00 0.0000000000e+00
6.4000000000e-01 0.0000000000e+00 0.0000000000e+00
6.5000000000e-01 0.0000000000e+00 0.0000000000e+00
6.6000000000e-01 0.0000000000e+00 0.0000000000e+00
6.7000000000e-01 0.0000000000e+00 0.0000000000e+00
6.8000000000e-01 0.0000000000e+00 0.0000000000e+00
6.9000000000e-01 0.0000000000e+00 0.0000000000e+00
7.0000000000e-01 0.0000000000e+00 0.0000000000e+00
7.1000000000e-01 0.0000000000e+00 0.0000000000e+00
7.2000000000e-01 0.0000000000e+00 0.0000000000e+00
7.3000000000e-01 0.0000000000e+00 0.0000000000e+00
7.4000000000e-01 0.0000000000e+00 0.0000000000e+00
7.5000000000e-01 0.0000000000e+00 0.0000000000e+00
7.6000000000e-01 0.0000000000e+00 0.0000000000e+00
7.7000000000e-01 0.0000000000e+00 0.0000000000e+00
7.8000000000e-01 0.0000000000e+00 0.0000000000e+00
7.9000000000e-01 0.0000000000e+00 0.0000000000e+00
8.0000000000e-01 0.0000000000e+00 0.0000000000e+00
8.1000000000e-01 0.0000000000e+00 0.0000000000e+00
8.2000000000e-01 0.0000000000e+00 0.0000000000e+00
8.3000000000e-01 0.0000000000e+00 0.0000000000e+00
8.4000000000e-01 0.0000000000e+00 0.0000000000e+00
8.5000000000e-01 0.0000000000e+00 0.0000000000e+00
8.6000000000e-01 0.0000000000e+00 0.0000000000e+00
8.7000000000e-01 0.0000000000e+00 0.0000000000e+00
8.8000000000e-01 0.0000000000e+00 0.0000000000e+00
8.9000000000e-01 0.0000000000e+00 0.0000000000e+00
9.0000000000e-01 0.0000000000e+00 0.0000000000e+00
9.1000000000e-01 0.0000000000e+00 0.0000000000e+00
9.2000000000e-01 0.0000000000e+00 0.0000000000e+00
9.3000000000e-01 0.0000000000e+00 0.0000000000e+00
9.4000000000e-01 0.0000000000e+00 0.0000000000e+00
9.5000000000e-01 0.0000000000e+00 0.0000000000e+00
9.6000000000e-01 0.0000000000e+00 0.0000000000e+00
9.7000000000e-01 0.0000000000e+00 0.0000000000e+00
9.8000000000e-01 0.0000000000e+00 0.0000000000e+00
9.9000000000e-01 0.0000000000e+00 0.0000000000e+00
1.0000000000e+00 0.0000000000e+00 0.0000000000e+00
0.0000000000e+00 1.0000000000e-03 0.0000000000e+00
1.0000000000e-02 1.0000000000e-03 0.0000000000e+00
2.0000000000e-02 1.0000000000e-03 0.0000000000e+00
3.0000000000e-02 1.0000000000e-03 0.0000000000e+00
4.0000000000e-02 1.0000000000e-03 0.0000000000e+00
5.0000000000e-02 1.0000000000e-03 0.0000000000e+00
6.0000000000e-02 1.0000000000e-03 0.0000000000e+00
7.0000000000e-02 1.0000000000e-03 0.0000000000e+00
8.0000000000e-02 1.0000000000e-03 0.0000000000e+00
9.0000000000e-02 1.0000000000e-03 0.0000000000e+00
1.0000000000e-01 1.0000000000e-03 0.0000000000e+00
1.1000000000e-01 1.0000000000e-03 0.0000000000e+00
1.2000000000e-01 1.0000000000e-03 0.0000000000e+00
1.3000000000e-01 1.0000000000e-03 0.0000000000e+00
1.4000000000e-01 1.0000000000e-03 0.0000000000e+00
1.5000000000e-01 1.0000000000e-03 0.0000000000e+00
1.6000000000e-01 1.0000000000e-03 0.0000000000e+00
1.7000000000e-01 1.0000000000e-03 0.0000000000e+00
1.8000000000e-01 1.0000000000e-03 0.0000000000e+00
1.9000000000e-01 1.0000000000e-03 0.0000000000e+00
2.0000000000e-01 1.0000000000e-03 0.0000000000e+00
2.1000000000e-01 1.0000000000e-03 0.0000000000e+00
2.2000000000e-01 1.0000000000e-03 0.0000000000e+00
2.3000000000e-01 1.0000000000e-03 0.0000000000e+00
2.4000000000e-01 1.0000000000e-03 0.0000000000e+00
2.5000000000e-01 1.0000000000e-03 0.0000000000e+00
2.6000000000e-01 1.0000000000e-03 0.0000000000e+00
2.7000000000e-01 1.0000000000e-03 0.0000000000e+00
2.8000000000e-01 1.0000000000e-03 0.0000000000e+00
2.9000000000e-01 1.0000000000e-03 0.0000000000e+00
3.0000000000e-01 1.0000000000e-03 0.0000000000e+00
3.1000000000e-01 1.0000000000e-03 0.0000000000e+00
3.2000000000e-01 1.0000000000e-03 0.0000000000e+00
3.3000000000e-01 1.0000000000e-03 0.0000000000e+00
3.4000000000e-01 1.0000000000e-03 0.0000000000e+00
3.5000000000e-01 1.0000000000e-03 0.0000000000e+00
3.6000000000e-01 1.0000000000e-03 0.0000000000e+00
3.7000000000e-01 1.0000000000e-03 0.0000000000e+00
3.8000000000e-01 1.0000000000e-03 0.0000000000e+00
3.9000000000e-01 1.0000000000e-03 0.0000000000e+00
4.0000000000e-01 1.0000000000e-03 0.0000000000e+00
4.1000000000e-01 1.0000000000e-03 0.0000000000e+00
4.2000000000e-01 1.0000000000e-03 0.0000000000e+00
4.3000000000e-01 1.0000000000e-03 0.0000000000e+00
4.4000000000e-01 1.0000000000e-03 0.0000000000e+00
4.5000000000e-01 1.0000000000e-03 0.0000000000e+00
4.6000000000e-01 1.0000000000e-03 0.0000000000e+00
4.7000000000e-01 1.0000000000e-03 0.0000000000e+00
4.8000000000e-01 1.0000000000e-03 0.0000000000e+00
4.9000000000e-01 1.0000000000e-03 0.0000000000e+00
5.0000000000e-01 1.0000000000e-03 0.0000000000e+00
5.1000000000e-01 1.0000000000e-03 0.0000000000e+00
5.2000000000e-01 1.0000000000e-03 0.0000000000e+00
5.3000000000e-01 1.0000000000e-03 0.0000000000e+00
5.4000000000e-01 1.0000000000e-03 0.0000000000e+00
5.5000000000e-01 1.0000000000e-03 0.0000000000e+00
5.6000000000e-01 1.0000000000e-03 0.0000000000e+00
5.7000000000e-01 1.0000000000e-03 0.0000000000e+00
5.8000000000e-01 1.0000000000e-03 0.0000000000e+00
5.9000000000e-01 1.0000000000e-03 0.0000000000e+00
6.0000000000e-01 1.0000000000e-03 0.0000000000e+00
6.1000000000e-01 1.0000000000e-03 0.0000000000e+00
6.2000000000e-01 1.0000000000e-03 0.0000000000e+00
6.3000000000e-01 1.0000000000e-03 0.0000000000e+00
6.4000000000e-01 1.0000000000e-03 0.0000000000e+00
6.5000000000e-01 1.0000000000e-03 0.0000000000e+00
6.6000000000e-01 1.0000000000e-03 0.0000000000e+00
6.7000000000e-01 1.0000000000e-03 0.0000000000e+00
6.8000000000e-01 1.0000000000e-03 0.0000000000e+00
6.9000000000e-01 1.0000000000e-03 0.0000000000e+00
7.0000000000e-01 1.0000000000e-03 0.0000000000e+00
7.1000000000e-01 1.0000000000e-03 0.0000000000e+00
7.2000000000e-01 1.0000000000e-03 0.0000000000e+00
7.3000000000e-01 1.0000000000e-03 0.0000000000e+00
7.4000000000e-01 1.0000000000e-03 0.0000000000e+00
7.5000000000e-01 1.0000000000e-03 0.0000000000e+00
7.6000000000e-01 1.0000000000e-03 0.0000000000e+00
7.7000000000e-01 1.0000000000e-03 0.0000000000e+00
7.8000000000e-01 1.0000000000e-03 0.0000000000e+00
7.9000000000e-01 1.0000000000e-03 0.0000000000e+00
8.0000000000e-01 1.0000000000e-03 0.0000000000e+00
8.1000000000e-01 1.0000000000e-03 0.0000000000e+00
8.2000000000e-01 1.0000000000e-03 0.0000000000e+00
8.3000000000e-01 1.0000000000e-03 0.0000000000e+00
8.4000000000e-01 1.0000000000e-03 0.0000000000e+00
8.5000000000e-01 1.0000000000e-03 0.0000000000e+00
8.6000000000e-01 1.0000000000e-03 0.0000000000e+00
8.7000000000e-01 1.0000000000e-03 0.0000000000e+00
8.8000000000e-01 1.0000000000e-03 0.0000000000e+00
8.9000000000e-01 1.0000000000e-03 0.0000000000e+00
9.0000000000e-01 1.0000000000e-03 0.0000000000e+00
9.1000000000e-01 1.0000000000e-03 0.0000000000e+00
9.2000000000e-01 1.0000000000e-03 0.0000000000e+00
[...]
CELL_DATA 1000

SCALARS massDensity float
LOOKUP_TABLE default
9.9999999996e+02
9.9999999996e+02
9.9999999996e+02
9.9999999996e+02
9.9999999996e+02
9.9999999996e+02
9.9999999996e+02
9.9999999996e+02
9.9999999996e+02
9.9999999996e+02
9.9999999996e+02
9.9999999996e+02
9.9999999996e+02
9.9999999996e+02
9.9999999996e+02
9.9999999996e+02
9.9999999996e+02
9.9999999996e+02
9.9999999996e+02
9.9999999996e+02
9.9999999996e+02
9.9999999996e+02
9.9999999996e+02
9.9999999996e+02
9.9999999996e+02
9.9999999996e+02
9.9999999995e+02
9.9999999988e+02
9.9999999951e+02
9.9999999742e+02
9.9999998641e+02
9.9999993203e+02
9.9999968014e+02
9.9999858988e+02
9.9999419379e+02
9.9997774061e+02
9.9992081586e+02
9.9973959851e+02
9.9921153238e+02
9.9781088864e+02
9.9444853506e+02
9.8718101492e+02
9.7309165197e+02
9.4863177605e+02
9.1056128930e+02
8.5722643437e+02
7.8957122234e+02
7.1145284205e+02
6.2896607134e+02
5.4936810948e+02
4.7952816950e+02
4.2322385703e+02
3.7935425529e+02
3.4282604568e+02
3.0751126940e+02
2.6810563124e+02
2.2450871396e+02
1.8351073727e+02
1.5313410238e+02
1.3604169763e+02
1.2865643817e+02
1.2606956937e+02
1.2528574941e+02
1.2507090832e+02
1.2501646036e+02
1.2500358555e+02
1.2500073417e+02
1.2500014150e+02
1.2500002571e+02
1.2500000441e+02
1.2500000072e+02
1.2500000011e+02
1.2500000002e+02
1.2500000001e+02
1.2500000001e+02
1.2500000000e+02
1.2500000000e+02
1.2500000000e+02
1.2500000000e+02
1.2500000000e+02
1.2500000000e+02
1.2500000000e+02
1.2500000000e+02
1.2500000000e+02
1.2500000000e+02
1.2500000000e+02
1.2500000000e+02
1.2500000000e+02
1.2500000000e+02
1.2500000000e+02
1.2500000000e+02
1.2500000000e+02
1.2500000000e+02
1.2500000000e+02
1.2500000000e+02
1.2500000000e+02
1.2500000000e+02
1.2500000000e+02
1.2500000000e+02
1.2500000000e+02
9.9999999996e+02
9.9999999996e+02
9.9999999996e+02
9.9999999996e+02
9.9999999996e+02
9.9999999996e+02
9.9999999996e+02
9.9999999996e+02
9.9999999996e+02
9.9999999996e+02
9.9999999996e+02
9.9999999996e+02
9.9999999996e+02
9.9999999996e+02
9.9999999996e+02
9.9999999996e+02
9.9999999996e+02
9.9999999996e+02
9.9999999996e+02
9.9999999996e+02
9.9999999996e+02
9.9999999996e+02
9.9999999996e+02
9.9999999996e+02
9.9999999996e+02
9.9999999996e+02
9.9999999995e+02
9.9999999988e+02
9.9999999951e+02
9.9999999742e+02
9.9999998641e+02
9.9999993203e+02
9.9999968014e+02
9.9999858988e+02
9.9999419379e+02
9.9997774061e+02
9.9992081586e+02
9.9973959851e+02
9.9921153238e+02
9.9781088864e+02
9.9444853506e+02
9.8718101492e+02
9.7309165197e+02
9.4863177605e+02
9.1056128930e+02
8.5722643437e+02
7.8957122234e+02
7.1145284205e+02
6.2896607134e+02
5.4936810948e+02
4.7952816950e+02
4.2322385703e+02
3.7935425529e+02
3.4282604568e+02
3.0751126940e+02
2.6810563124e+02
2.2450871396e+02
1.8351073727e+02
1.5313410238e+02
1.3604169763e+02
1.2865643817e+02
1.2606956937e+02
1.2528574941e+02
1.2507090832e+02
1.2501646036e+02
1.2500358555e+02
1.2500073417e+02
1.2500014150e+02
1.2500002571e+02
1.2500000441e+02
1.2500000072e+02
1.2500000011e+02
1.2500000002e+02
1.2500000001e+02
1.2500000001e+02
1.2500000000e+02
1.2500000000e+02
1.2500000000e+02
1.2500000000e+02
1.2500000000e+02
1.2500000000e+02
1.2500000000e+02
1.2500000000e+02
1.2500000000e+02
1.2500000000e+02
1.2500000000e+02
1.2500000000e+02
1.2500000000e+02
1.2500000000e+02
1.2500000000e+02
1.2500000000e+02
1.2500000000e+02
1.2500000000e+02
1.2500000000e+02
1.2500000000e+02
1.2500000000e+02
1.2500000000e+02
1.2500000000e+02
1.2500000000e+02
1.2500000000e+02
9.9999999996e+02
9.9999999996e+02
9.9999999996e+02
9.9999999996e+02
9.9999999996e+02
9.9999999996e+02
9.9999999996e+02
9.9999999996e+02
9.9999999996e+02
9.9999999996e+02
9.9999999996e+02
9.9999999996e+02
9.9999999996e+02
9.9999999996e+02
9.9999999996e+02
9.9999999996e+02
9.9999999996e+02
9.9999999996e+02
9.9999999996e+02
9.9999999996e+02
9.9999999996e+02
9.9999999996e+02
9.9999999996e+02
9.9999999996e+02
9.9999999996e+02
9.9999999996e+02
9.9999999995e+02
9.9999999988e+02
9.9999999951e+02
9.9999999742e+02
9.9999998641e+02
9.9999993203e+02
9.9999968014e+02
9.9999858988e+02
9.9999419379e+02
9.9997774061e+02
9.9992081586e+02
9.9973959851e+02
9.9921153238e+02
9.9781088864e+02
9.9444853506e+02
9.8718101492e+02
9.7309165197e+02
9.4863177605e+02
9.1056128930e+02
8.5722643437e+02
7.8957122234e+02
7.1145284205e+02
6.2896607134e+02
5.4936810948e+02
4.7952816950e+02
4.2322385703e+02
3.7935425529e+02
3.4282604568e+02
3.0751126940e+02
2.6810563124e+02
2.2450871396e+02
1.8351073727e+02
1.5313410238e+02
1.3604169763e+02
1.2865643817e+02
1.2606956937e+02
1.2528574941e+02
1.2507090832e+02
1.2501646036e+02
1.2500358555e+02
1.2500073417e+02
1.2500014150e+02
1.2500002571e+02
1.2500000441e+02
1.2500000072e+02
1.2500000011e+02
1.2500000002e+02
1.2500000001e+02
1.2500000001e+02
1.2500000000e+02
1.2500000000e+02
1.2500000000e+02
1.2500000000e+02
1.2500000000e+02
1.2500000000e+02
1.2500000000e+02
1.2500000000e+02
1.2500000000e+02
1.2500000000e+02
1.2500000000e+02
1.2500000000e+02
1.2500000000e+02
1.2500000000e+02
1.2500000000e+02
1.2500000000e+02
1.2500000000e+02
1.2500000000e+02
1.2500000000e+02
1.2500000000e+02
1.2500000000e+02
1.2500000000e+02
1.2500000000e+02
1.2500000000e+02
1.2500000000e+02
9.9999999996e+02
9.9999999996e+02
9.9999999996e+02
9.9999999996e+02
9.9999999996e+02
9.9999999996e+02
9.9999999996e+02
9.9999999996e+02
9.9999999996e+02
9.9999999996e+02
9.9999999996e+02
9.9999999996e+02
9.9999999996e+02
9.9999999996e+02
9.9999999996e+02
9.9999999996e+02
9.9999999996e+02
9.9999999996e+02
9.9999999996e+02
9.9999999996e+02
9.9999999996e+02
9.9999999996e+02
9.9999999996e+02
9.9999999996e+02
9.9999999996e+02
9.9999999996e+02
9.9999999995e+02
9.9999999988e+02
9.9999999951e+02
9.9999999742e+02
9.9999998641e+02
9.9999993203e+02
9.9999968014e+02
9.9999858988e+02
9.9999419379e+02
9.9997774061e+02
9.9992081586e+02
9.9973959851e+02
9.9921153238e+02
9.9781088864e+02
9.9444853506e+02
9.8718101492e+02
9.7309165197e+02
9.4863177605e+02
9.1056128930e+02
8.5722643437e+02
7.8957122234e+02
7.1145284205e+02
6.2896607134e+02
5.4936810948e+02
4.7952816950e+02
4.2322385703e+02
3.7935425529e+02
3.4282604568e+02
3.0751126940e+02
2.6810563124e+02
2.2450871396e+02
1.8351073727e+02
1.5313410238e+02
1.3604169763e+02
1.2865643817e+02
1.2606956937e+02
1.2528574941e+02
1.2507090832e+02
1.2501646036e+02
1.2500358555e+02
1.2500073417e+02
1.2500014150e+02
1.2500002571e+02
1.2500000441e+02
1.2500000072e+02
1.2500000011e+02
1.2500000002e+02
1.2500000001e+02
1.2500000001e+02
1.2500000000e+02
1.2500000000e+02
1.2500000000e+02
1.2500000000e+02
1.2500000000e+02
1.2500000000e+02
1.2500000000e+02
1.2500000000e+02
1.2500000000e+02
1.2500000000e+02
1.2500000000e+02
1.2500000000e+02
1.2500000000e+02
1.2500000000e+02
1.2500000000e+02
1.2500000000e+02
1.2500000000e+02
1.2500000000e+02
1.2500000000e+02
1.2500000000e+02
1.2500000000e+02
1.2500000000e+02
1.2500000000e+02
1.2500000000e+02
1.2500000000e+02
9.9999999996e+02
9.9999999996e+02
9.9999999996e+02
9.9999999996e+02
9.9999999996e+02
9.9999999996e+02
9.9999999996e+02
9.9999999996e+02
9.9999999996e+02
9.9999999996e+02
9.9999999996e+02
9.9999999996e+02
9.9999999996e+02
9.9999999996e+02
9.9999999996e+02
9.9999999996e+02
9.9999999996e+02
9.9999999996e+02
9.9999999996e+02
9.9999999996e+02
9.9999999996e+02
9.9999999996e+02
9.9999999996e+02
9.9999999996e+02
9.9999999996e+02
9.9999999996e+02
9.9999999995e+02
9.9999999988e+02
9.9999999951e+02
9.9999999742e+02
9.9999998641e+02
9.9999993203e+02
9.9999968014e+02
9.9999858988e+02
9.9999419379e+02
9.9997774061e+02
9.9992081586e+02
9.9973959851e+02
9.9921153238e+02
9.9781088864e+02
9.9444853506e+02
9.8718101492e+02
9.7309165197e+02
9.4863177605e+02
9.1056128930e+02
8.5722643437e+02
7.8957122234e+02
7.1145284205e+02
6.2896607134e+02
5.4936810948e+02
4.7952816950e+02
4.2322385703e+02
3.7935425529e+02
3.4282604568e+02
3.0751126940e+02
2.6810563124e+02
2.2450871396e+02
1.8351073727e+02
1.5313410238e+02
1.3604169763e+02
1.2865643817e+02
1.2606956937e+02
1.2528574941e+02
1.2507090832e+02
1.2501646036e+02
1.2500358555e+02
1.2500073417e+02
1.2500014150e+02
1.2500002571e+02
1.2500000441e+02
1.2500000072e+02
1.2500000011e+02
1.2500000002e+02
1.2500000001e+02
1.2500000001e+02
1.2500000000e+02
1.2500000000e+02
1.2500000000e+02
1.2500000000e+02
1.2500000000e+02
1.2500000000e+02
1.2500000000e+02
1.2500000000e+02
1.2500000000e+02
1.2500000000e+02
1.2500000000e+02
1.2500000000e+02
1.2500000000e+02
1.2500000000e+02
1.2500000000e+02
1.2500000000e+02
1.2500000000e+02
1.2500000000e+02
1.2500000000e+02
1.2500000000e+02
1.2500000000e+02
1.2500000000e+02
1.2500000000e+02
1.2500000000e+02
1.2500000000e+02
9.9999999996e+02
9.9999999996e+02
9.9999999996e+02
9.9999999996e+02
9.9999999996e+02
9.9999999996e+02
9.9999999996e+02
9.9999999996e+02
9.9999999996e+02
9.9999999996e+02
9.9999999996e+02
9.9999999996e+02
9.9999999996e+02
9.9999999996e+02
9.9999999996e+02
9.9999999996e+02
9.9999999996e+02
9.9999999996e+02
9.9999999996e+02
9.9999999996e+02
9.9999999996e+02
9.9999999996e+02
9.9999999996e+02
9.9999999996e+02
9.9999999996e+02
9.9999999996e+02
9.9999999995e+02
9.9999999988e+02
9.9999999951e+02
9.9999999742e+02
9.9999998641e+02
9.9999993203e+02
9.9999968014e+02
9.9999858988e+02
9.9999419379e+02
9.9997774061e+02
9.9992081586e+02
9.9973959851e+02
9.9921153238e+02
9.9781088864e+02
9.9444853506e+02
9.8718101492e+02
9.7309165197e+02
9.4863177605e+02
9.1056128930e+02
8.5722643437e+02
7.8957122234e+02
7.1145284205e+02
6.2896607134e+02
5.4936810948e+02
4.7952816950e+02
4.2322385703e+02
3.7935425529e+02
3.4282604568e+02
3.0751126940e+02
2.6810563124e+02
2.2450871396e+02
1.8351073727e+02
1.5313410238e+02
1.3604169763e+02
1.2865643817e+02
1.2606956937e+02
1.2528574941e+02
1.2507090832e+02
1.2501646036e+02
1.2500358555e+02
1.2500073417e+02
1.2500014150e+02
1.2500002571e+02
1.2500000441e+02
1.2500000072e+02
1.2500000011e+02
1.2500000002e+02
1.2500000001e+02
1.2500000001e+02
1.2500000000e+02
1.2500000000e+02
1.2500000000e+02
1.2500000000e+02
1.2500000000e+02
1.2500000000e+02
1.2500000000e+02
1.2500000000e+02
1.2500000000e+02
1.2500000000e+02
1.2500000000e+02
1.2500000000e+02
1.2500000000e+02
1.2500000000e+02
1.2500000000e+02
1.2500000000e+02
1.2500000000e+02
1.2500000000e+02
1.2500000000e+02
1.2500000000e+02
1.2500000000e+02
1.2500000000e+02
1.2500000000e+02
1.2500000000e+02
1.2500000000e+02
9.9999999996e+02
9.9999999996e+02
9.9999999996e+02
9.9999999996e+02
9.9999999996e+02
9.9999999996e+02
9.9999999996e+02
9.9999999996e+02
9.9999999996e+02
9.9999999996e+02
9.9999999996e+02
9.9999999996e+02
9.9999999996e+02
9.9999999996e+02
9.9999999996e+02
9.9999999996e+02
9.9999999996e+02
9.9999999996e+02
9.9999999996e+02
9.9999999996e+02
9.9999999996e+02
9.9999999996e+02
9.9999999996e+02
9.9999999996e+02
9.9999999996e+02
9.9999999996e+02
9.9999999995e+02
9.9999999988e+02
9.9999999951e+02
9.9999999742e+02
9.9999998641e+02
9.9999993203e+02
9.9999968014e+02
9.9999858988e+02
9.9999419379e+02
9.9997774061e+02
9.9992081586e+02
9.9973959851e+02
9.9921153238e+02
9.9781088864e+02
9.9444853506e+02
9.8718101492e+02
9.7309165197e+02
9.4863177605e+02
9.1056128930e+02
8.5722643437e+02
7.8957122234e+02
7.1145284205e+02
6.2896607134e+02
5.4936810948e+02
4.7952816950e+02
4.2322385703e+02
3.7935425529e+02
3.4282604568e+02
3.0751126940e+02
2.6810563124e+02
2.2450871396e+02
1.8351073727e+02
1.5313410238e+02
1.3604169763e+02
1.2865643817e+02
1.2606956937e+02
1.2528574941e+02
1.2507090832e+02
1.2501646036e+02
1.2500358555e+02
1.2500073417e+02
1.2500014150e+02
1.2500002571e+02
1.2500000441e+02
1.2500000072e+02
1.2500000011e+02
1.2500000002e+02
1.2500000001e+02
1.2500000001e+02
1.2500000000e+02
1.2500000000e+02
1.2500000000e+02
1.2500000000e+02
1.2500000000e+02
1.2500000000e+02
1.2500000000e+02
1.2500000000e+02
1.2500000000e+02
1.2500000000e+02
1.2500000000e+02
1.2500000000e+02
1.2500000000e+02
1.2500000000e+02
1.2500000000e+02
1.2500000000e+02
1.2500000000e+02
1.2500000000e+02
1.2500000000e+02
1.2500000000e+02
1.2500000000e+02
1.2500000000e+02
1.2500000000e+02
1.2500000000e+02
1.2500000000e+02
9.9999999996e+02
9.9999999996e+02
9.9999999996e+02
9.9999999996e+02
9.9999999996e+02
9.9999999996e+02
9.9999999996e+02
9.9999999996e+02
9.9999999996e+02
9.9999999996e+02
9.9999999996e+02
9.9999999996e+02
9.9999999996e+02
9.9999999996e+02
9.9999999996e+02
9.9999999996e+02
9.9999999996e+02
9.9999999996e+02
9.9999999996e+02
9.9999999996e+02
9.9999999996e+02
9.9999999996e+02
9.9999999996e+02
9.9999999996e+02
9.9999999996e+02
9.9999999996e+02
9.9999999995e+02
9.9999999988e+02
9.9999999951e+02
9.9999999742e+02
9.9999998641e+02
9.9999993203e+02
9.9999968014e+02
9.9999858988e+02
9.9999419379e+02
9.9997774061e+02
9.9992081586e+02
9.9973959851e+02
9.9921153238e+02
9.9781088864e+02
9.9444853506e+02
9.8718101492e+02
9.7309165197e+02
9.4863177605e+02
9.1056128930e+02
8.5722643437e+02
7.8957122234e+02
7.1145284205e+02
6.2896607134e+02
5.4936810948e+02
4.7952816950e+02
4.2322385703e+02
3.7935425529e+02
3.4282604568e+02
3.0751126940e+02
2.6810563124e+02
2.2450871396e+02
1.8351073727e+02
1.5313410238e+02
1.3604169763e+02
1.2865643817e+02
1.2606956937e+02
1.2528574941e+02
1.2507090832e+02
1.2501646036e+02
1.2500358555e+02
1.2500073417e+02
1.2500014150e+02
1.2500002571e+02
1.2500000441e+02
1.2500000072e+02
1.2500000011e+02
1.2500000002e+02
1.2500000001e+02
1.2500000001e+02
1.2500000000e+02
1.2500000000e+02
1.2500000000e+02
1.2500000000e+02
1.2500000000e+02
1.2500000000e+02
1.2500000000e+02
1.2500000000e+02
1.2500000000e+02
1.2500000000e+02
1.2500000000e+02
1.2500000000e+02
1.2500000000e+02
1.2500000000e+02
1.2500000000e+02
1.2500000000e+02
1.2500000000e+02
1.2500000000e+02
1.2500000000e+02
1.2500000000e+02
1.2500000000e+02
1.2500000000e+02
1.2500000000e+02
1.2500000000e+02
1.2500000000e+02
9.9999999996e+02
9.9999999996e+02
9.9999999996e+02
9.9999999996e+02
9.9999999996e+02
9.9999999996e+02
9.9999999996e+02
9.9999999996e+02
9.9999999996e+02
9.9999999996e+02
9.9999999996e+02
9.9999999996e+02
9.9999999996e+02
9.9999999996e+02
9.9999999996e+02
9.9999999996e+02
9.9999999996e+02
9.9999999996e+02
9.9999999996e+02
9.9999999996e+02
9.9999999996e+02
9.9999999996e+02
9.9999999996e+02
9.9999999996e+02
9.9999999996e+02
9.9999999996e+02
9.9999999995e+02
9.9999999988e+02
9.9999999951e+02
9.9999999742e+02
9.9999998641e+02
9.9999993203e+02
9.9999968014e+02
9.9999858988e+02
9.9999419379e+02
9.9997774061e+02
9.9992081586e+02
9.9973959851e+02
9.9921153238e+02
9.9781088864e+02
9.9444853506e+02
9.8718101492e+02
9.7309165197e+02
9.4863177605e+02
9.1056128930e+02
8.5722643437e+02
7.8957122234e+02
7.1145284205e+02
6.2896607134e+02
5.4936810948e+02
4.7952816950e+02
4.2322385703e+02
3.7935425529e+02
3.4282604568e+02
3.0751126940e+02
2.6810563124e+02
2.2450871396e+02
1.8351073727e+02
1.5313410238e+02
1.3604169763e+02
1.2865643817e+02
1.2606956937e+02
1.2528574941e+02
1.2507090832e+02
1.2501646036e+02
1.2500358555e+02
1.2500073417e+02
1.2500014150e+02
1.2500002571e+02
1.2500000441e+02
1.2500000072e+02
1.2500000011e+02
1.2500000002e+02
1.2500000001e+02
1.2500000001e+02
1.2500000000e+02
1.2500000000e+02
1.2500000000e+02
1.2500000000e+02
1.2500000000e+02
1.2500000000e+02
1.2500000000e+02
1.2500000000e+02
1.2500000000e+02
1.2500000000e+02
1.2500000000e+02
1.2500000000e+02
1.2500000000e+02
1.2500000000e+02
1.2500000000e+02
1.2500000000e+02
1.2500000000e+02
1.2500000000e+02
1.2500000000e+02
1.2500000000e+02
1.2500000000e+02
1.2500000000e+02
1.2500000000e+02
1.2500000000e+02
1.2500000000e+02
9.9999999996e+02
9.9999999996e+02
9.9999999996e+02
9.9999999996e+02
9.9999999996e+02
9.9999999996e+02
9.9999999996e+02
9.9999999996e+02
9.9999999996e+02
9.9999999996e+02
9.9999999996e+02
9.9999999996e+02
9.9999999996e+02
9.9999999996e+02
9.9999999996e+02
9.9999999996e+02
9.9999999996e+02
9.9999999996e+02
9.9999999996e+02
9.9999999996e+02
9.9999999996e+02
9.9999999996e+02
9.9999999996e+02
9.9999999996e+02
9.9999999996e+02
9.9999999996e+02
9.9999999995e+02
9.9999999988e+02
9.9999999951e+02
9.9999999742e+02
9.9999998641e+02
9.9999993203e+02
9.9999968014e+02
9.9999858988e+02
9.9999419379e+02
9.9997774061e+02
9.9992081586e+02
9.9973959851e+02
9.9921153238e+02
9.9781088864e+02
9.9444853506e+02
9.8718101492e+02
9.7309165197e+02
9.4863177605e+02
9.1056128930e+02
8.5722643437e+02
7.8957122234e+02
7.1145284205e+02
6.2896607134e+02
5.4936810948e+02
4.7952816950e+02
4.2322385703e+02
3.7935425529e+02
3.4282604568e+02
3.0751126940e+02
2.6810563124e+02
2.2450871396e+02
1.8351073727e+02
1.5313410238e+02
1.3604169763e+02
1.2865643817e+02
1.2606956937e+02
1.2528574941e+02
1.2507090832e+02
1.2501646036e+02
1.2500358555e+02
1.2500073417e+02
1.2500014150e+02
1.2500002571e+02
1.2500000441e+02
1.2500000072e+02
1.2500000011e+02
1.2500000002e+02
1.2500000001e+02
1.2500000001e+02
1.2500000000e+02
1.2500000000e+02
1.2500000000e+02
1.2500000000e+02
1.2500000000e+02
1.2500000000e+02
1.2500000000e+02
1.2500000000e+02
1.2500000000e+02
1.2500000000e+02
1.2500000000e+02
1.2500000000e+02
1.2500000000e+02
1.2500000000e+02
1.2500000000e+02
1.2500000000e+02
1.2500000000e+02
1.2500000000e+02
1.2500000000e+02
1.2500000000e+02
1.2500000000e+02
1.2500000000e+02
1.2500000000e+02
1.2500000000e+02
1.2500000000e+02

SCALARS molarDensity float
LOOKUP_TABLE default
1.2977624132e+05
1.2977624132e+05
1.2977624132e+05
1.2977624132e+05
1.2977624132e+05
1.2977624132e+05
1.2977624132e+05
1.2977624132e+05
1.2977624132e+05
1.2977624132e+05
1.2977624132e+05
1.2977624132e+05
1.2977624132e+05
1.2977624132e+05
1.2977624132e+05
1.2977624132e+05
1.2977624132e+05
1.2977624132e+05
1.2977624132e+05
1.2977624132e+05
1.2977624132e+05
1.2977624132e+05
1.2977624132e+05
1.2977624132e+05
1.2977624132e+05
1.2977624132e+05
1.2977624132e+05
1.2977624131e+05
1.2977624126e+05
1.2977624099e+05
1.2977623956e+05
1.2977623251e+05
1.2977619982e+05
1.2977605833e+05
1.2977548782e+05
1.2977335259e+05
1.2976596511e+05
1.2974244740e+05
1.2967391696e+05
1.2949214668e+05
1.2905579307e+05
1.2811264163e+05
1.2628417706e+05
1.2310986630e+05
1.1816922162e+05
1.1124762462e+05
1.0246758550e+05
9.2329675723e+04
8.1624852660e+04
7.1294928353e+04
6.2231363448e+04
5.4924401405e+04
4.9231169383e+04
4.4490675637e+04
3.9907656709e+04
3.4793741101e+04
2.9135897043e+04
2.3815333725e+04
1.9873168226e+04
1.7654980183e+04
1.6696548968e+04
1.6360834859e+04
1.6259113651e+04
1.6231232381e+04
1.6224166330e+04
1.6222495485e+04
1.6222125444e+04
1.6222048530e+04
1.6222033502e+04
1.6222030738e+04
1.6222030259e+04
1.6222030181e+04
1.6222030169e+04
1.6222030167e+04
1.6222030167e+04
1.6222030166e+04
1.6222030166e+04
1.6222030166e+04
1.6222030166e+04
1.6222030166e+04
1.6222030166e+04
1.6222030166e+04
1.6222030166e+04
1.6222030166e+04
1.6222030166e+04
1.6222030166e+04
1.6222030166e+04
1.6222030166e+04
1.6222030166e+04
1.6222030166e+04
1.6222030166e+04
1.6222030166e+04
1.6222030166e+04
1.6222030166e+04
1.6222030166e+04
1.6222030166e+04
1.6222030166e+04
1.6222030166e+04
1.6222030166e+04
1.6222030166e+04
1.2977624132e+05
1.2977624132e+05
1.2977624132e+05
1.2977624132e+05
1.2977624132e+05
1.2977624132e+05
1.2977624132e+05
1.2977624132e+05
1.2977624132e+05
1.2977624132e+05
1.2977624132e+05
1.2977624132e+05
1.2977624132e+05
1.2977624132e+05
1.2977624132e+05
1.2977624132e+05
1.2977624132e+05
1.2977624132e+05
1.2977624132e+05
1.2977624132e+05
1.2977624132e+05
1.2977624132e+05
1.2977624132e+05
1.2977624132e+05
1.2977624132e+05
1.2977624132e+05
1.2977624132e+05
1.2977624131e+05
1.2977624126e+05
1.2977624099e+05
1.2977623956e+05
1.2977623251e+05
1.2977619982e+05
1.2977605833e+05
1.2977548782e+05
1.2977335259e+05
1.2976596511e+05
1.2974244740e+05
1.2967391696e+05
1.2949214668e+05
1.2905579307e+05
1.2811264163e+05
1.2628417706e+05
1.2310986630e+05
1.1816922162e+05
1.1124762462e+05
1.0246758550e+05
9.2329675723e+04
8.1624852660e+04
7.1294928353e+04
6.2231363448e+04
5.4924401405e+04
4.9231169383e+04
4.4490675637e+04
3.9907656709e+04
3.4793741101e+04
2.9135897043e+04
2.3815333725e+04
1.9873168226e+04
1.7654980183e+04
1.6696548968e+04
1.6360834859e+04
1.6259113651e+04
1.6231232381e+04
1.6224166330e+04
1.6222495485e+04
1.6222125444e+04
1.6222048530e+04
1.6222033502e+04