# vtk DataFile Version 2.0
Blank
ASCII
DATASET STRUCTURED_GRID
DIMENSIONS 101 11 2
POINTS 2222 float
0.0000000000e+00 0.0000000000e+00 0.0000000000e+00
1.0000000000e-02 0.0000000000e+00 0.0000000000e+00
2.0000000000e-02 0.0000000000e+00 0.0000000000e+00
3.0000000000e-02 0.0000000000e+00 0.0000000000e+00
4.0000000000e-02 0.0000000000e+00 0.0000000000e+00
5.0000000000e-02 0.0000000000e+00 0.0000000000e+00
6.0000000000e-02 0.0000000000e+00 0.0000000000e+00
7.0000000000e-02 0.0000000000e+00 0.0000000000e+00
8.0000000000e-02 0.0000000000e+00 0.0000000000e+00
9.0000000000e-02 0.0000000000e+00 0.0000000000e+00
1.0000000000e-01 0.0000000000e+00 0.0000000000e+00
1.1000000000e-01 0.0000000000e+00 0.0000000000e+00
1.2000000000e-01 0.0000000000e+00 0.0000000000e+00
1.3000000000e-01 0.0000000000e+00 0.0000000000e+00
1.4000000000e-01 0.0000000000e+00 0.0000000000e+00
1.5000000000e-01 0.0000000000e+00 0.0000000000e+00
1.6000000000e-01 0.0000000000e+00 0.0000000000e+00
1.7000000000e-01 0.0000000000e+00 0.0000000000e+00
1.8000000000e-01 0.0000000000e+00 0.0000000000e+00
1.9000000000e-01 0.0000000000e+00 0.0000000000e+00
2.0000000000e-01 0.0000000000e+00 0.0000000000e+00
2.1000000000e-01 0.0000000000e+00 0.0000000000e+00
2.2000000000e-01 0.0000000000e+00 0.0000000000e+00
2.3000000000e-01 0.0000000000e+00 0.0000000000e+00
2.4000000000e-01 0.0000000000e+00 0.0000000000e+00
2.5000000000e-01 0.0000000000e+00 0.0000000000e+00
2.6000000000e-01 0.0000000000e+00 0.0000000000e+00
2.7000000000e-01 0.0000000000e+00 0.0000000000e+00
2.8000000000e-01 0.0000000000e+00 0.0000000000e+00
2.9000000000e-01 0.0000000000e+00 0.0000000000e+00
3.0000000000e-01 0.0000000000e+00 0.0000000000e+00
3.1000000000e-01 0.0000000000e+00 0.0000000000e+00
3.2000000000e-01 0.0000000000e+00 0.0000000000e+00
3.3000000000e-01 0.0000000000e+00 0.0000000000e+00
3.4000000000e-01 0.0000000000e+00 0.0000000000e+00
3.5000000000e-01 0.0000000000e+00 0.0000000000e+00
3.6000000000e-01 0.0000000000e+00 0.0000000000e+00
3.7000000000e-01 0.0000000000e+00 0.0000000000e+00
3.8000000000e-01 0.0000000000e+00 0.0000000000e+00
3.9000000000e-01 0.0000000000e+00 0.0000000000e+00
4.0000000000e-01 0.0000000000e+00 0.0000000000e+00
4.1000000000e-01 0.0000000000e+00 0.0000000000e+00
4.2000000000e-01 0.0000000000e+00 0.0000000000e+00
4.3000000000e-01 0.0000000000e+00 0.0000000000e+00
4.4000000000e-01 0.0000000000e+00 0.0000000000e+00
4.5000000000e-01 0.0000000000e+00 0.0000000000e+00
4.6000000000e-01 0.0000000000e+00 0.0000000000e+00
4.7000000000e-01 0.0000000000e+00 0.0000000000e+00
4.8000000000e-01 0.0000000000e+00 0.0000000000e+00
4.9000000000e-01 0.0000000000e+00 0.0000000000e+00
5.0000000000e-01 0.0000000000e+00 0.0000000000e+00
5.1000000000e-01 0.0000000000e+00 0.0000000000e+00
5.2000000000e-01 0.0000000000e+00 0.0000000000e+00
5.3000000000e-01 0.0000000000e+00 0.0000000000e+00
5.4000000000e-01 0.0000000000e+00 0.0000000000e+00
5.5000000000e-01 0.0000000000e+00 0.0000000000e+00
5.6000000000e-01 0.0000000000e+00 0.0000000000e+00
5.7000000000e-01 0.0000000000e+00 0.0000000000e+00
5.8000000000e-01 0.0000000000e+00 0.0000000000e+00
5.9000000000e-01 0.0000000000e+00 0.0000000000e+00
6.0000000000e-01 0.0000000000e+00 0.0000000000e+00
6.1000000000e-01 0.0000000000e+00 0.0000000000e+00
6.2000000000e-01 0.0000000000e+00 0.0000000000e+00
6.3000000000e-01 0.0000000000e+00 0.0000000000e+00
6.4000000000e-01 0.0000000000e+00 0.0000000000e+00
6.5000000000e-01 0.0000000000e+00 0.0000000000e+00
6.6000000000e-01 0.0000000000e+00 0.0000000000e+00
6.7000000000e-01 0.0000000000e+00 0.0000000000e+00
6.8000000000e-01 0.0000000000e+00 0.0000000000e+00
6.9000000000e-01 0.0000000000e+00 0.0000000000e+00
7.0000000000e-01 0.0000000000e+00 0.0000000000e+00
7.1000000000e-01 0.0000000000e+00 0.0000000000e+00
7.2000000000e-01 0.0000000000e+00 0.0000000000e+00
7.3000000000e-01 0.0000000000e+00 0.0000000000e+00
7.4000000000e-01 0.0000000000e+00 0.0000000000e+00
7.5000000000e-01 0.0000000000e+00 0.0000000000e+00
7.6000000000e-01 0.0000000000e+00 0.0000000000e+00
7.7000000000e-01 0.0000000000e+00 0.0000000000e+00
7.8000000000e-01 0.0000000000e+00 0.0000000000e+00
7.9000000000e-01 0.0000000000e+00 0.0000000000e+00
8.0000000000e-01 0.0000000000e+00 0.0000000000e+00
8.1000000000e-01 0.0000000000e+00 0.0000000000e+00
8.2000000000e-01 0.0000000000e+00 0.0000000000e+00
8.3000000000e-01 0.0000000000e+00 0.0000000000e+00
8.4000000000e-01 0.0000000000e+00 0.0000000000e+00
8.5000000000e-01 0.0000000000e+00 0.0000000000e+00
8.6000000000e-01 0.0000000000e+00 0.0000000000e+00
8.7000000000e-01 0.0000000000e+00 0.0000000000e+00
8.8000000000e-01 0.0000000000e+00 0.0000000000e+00
8.9000000000e-01 0.0000000000e+00 0.0000000000e+00
9.0000000000e-01 0.0000000000e+00 0.0000000000e+00
9.1000000000e-01 0.0000000000e+00 0.0000000000e+00
9.2000000000e-01 0.0000000000e+00 0.0000000000e+00
9.3000000000e-01 0.0000000000e+00 0.0000000000e+00
9.4000000000e-01 0.0000000000e+00 0.0000000000e+00
9.5000000000e-01 0.0000000000e+00 0.0000000000e+00
9.6000000000e-01 0.0000000000e+00 0.0000000000e+00
9.7000000000e-01 0.0000000000e+00 0.0000000000e+00
9.8000000000e-01 0.0000000000e+00 0.0000000000e+00
9.9000000000e-01 0.0000000000e+00 0.0000000000e+00
1.0000000000e+00 0.0000000000e+00 0.0000000000e+00
0.0000000000e+00 1.0000000000e-03 0.0000000000e+00
1.0000000000e-02 1.0000000000e-03 0.0000000000e+00
2.0000000000e-02 1.0000000000e-03 0.0000000000e+00
3.0000000000e-02 1.0000000000e-03 0.0000000000e+00
4.0000000000e-02 1.0000000000e-03 0.0000000000e+00
5.0000000000e-02 1.0000000000e-03 0.0000000000e+00
6.0000000000e-02 1.0000000000e-03 0.0000000000e+00
7.0000000000e-02 1.0000000000e-03 0.0000000000e+00
8.0000000000e-02 1.0000000000e-03 0.0000000000e+00
9.0000000000e-02 1.0000000000e-03 0.0000000000e+00
1.0000000000e-01 1.0000000000e-03 0.0000000000e+00
1.1000000000e-01 1.0000000000e-03 0.0000000000e+00
1.2000000000e-01 1.0000000000e-03 0.0000000000e+00
1.3000000000e-01 1.0000000000e-03 0.0000000000e+00
1.4000000000e-01 1.0000000000e-03 0.0000000000e+00
1.5000000000e-01 1.0000000000e-03 0.0000000000e+00
1.6000000000e-01 1.0000000000e-03 0.0000000000e+00
1.7000000000e-01 1.0000000000e-03 0.0000000000e+00
1.8000000000e-01 1.0000000000e-03 0.0000000000e+00
1.9000000000e-01 1.0000000000e-03 0.0000000000e+00
2.0000000000e-01 1.0000000000e-03 0.0000000000e+00
2.1000000000e-01 1.0000000000e-03 0.0000000000e+00
2.2000000000e-01 1.0000000000e-03 0.0000000000e+00
2.3000000000e-01 1.0000000000e-03 0.0000000000e+00
2.4000000000e-01 1.0000000000e-03 0.0000000000e+00
2.5000000000e-01 1.0000000000e-03 0.0000000000e+00
2.6000000000e-01 1.0000000000e-03 0.0000000000e+00
2.7000000000e-01 1.0000000000e-03 0.0000000000e+00
2.8000000000e-01 1.0000000000e-03 0.0000000000e+00
2.9000000000e-01 1.0000000000e-03 0.0000000000e+00
3.0000000000e-01 1.0000000000e-03 0.0000000000e+00
3.1000000000e-01 1.0000000000e-03 0.0000000000e+00
3.2000000000e-01 1.0000000000e-03 0.0000000000e+00
3.3000000000e-01 1.0000000000e-03 0.0000000000e+00
3.4000000000e-01 1.0000000000e-03 0.0000000000e+00
3.5000000000e-01 1.0000000000e-03 0.0000000000e+00
3.6000000000e-01 1.0000000000e-03 0.0000000000e+00
3.7000000000e-01 1.0000000000e-03 0.0000000000e+00
3.8000000000e-01 1.0000000000e-03 0.0000000000e+00
3.9000000000e-01 1.0000000000e-03 0.0000000000e+00
4.0000000000e-01 1.0000000000e-03 0.0000000000e+00
4.1000000000e-01 1.0000000000e-03 0.0000000000e+00
4.2000000000e-01 1.0000000000e-03 0.0000000000e+00
4.3000000000e-01 1.0000000000e-03 0.0000000000e+00
4.4000000000e-01 1.0000000000e-03 0.0000000000e+00
4.5000000000e-01 1.0000000000e-03 0.0000000000e+00
4.6000000000e-01 1.0000000000e-03 0.0000000000e+00
4.7000000000e-01 1.0000000000e-03 0.0000000000e+00
4.8000000000e-01 1.0000000000e-03 0.0000000000e+00
4.9000000000e-01 1.0000000000e-03 0.0000000000e+00
5.0000000000e-01 1.0000000000e-03 0.0000000000e+00
5.1000000000e-01 1.0000000000e-03 0.0000000000e+00
5.2000000000e-01 1.0000000000e-03 0.0000000000e+00
5.3000000000e-01 1.0000000000e-03 0.0000000000e+00
5.4000000000e-01 1.0000000000e-03 0.0000000000e+00
5.5000000000e-01 1.0000000000e-03 0.0000000000e+00
5.6000000000e-01 1.0000000000e-03 0.0000000000e+00
5.7000000000e-01 1.0000000000e-03 0.0000000000e+00
5.8000000000e-01 1.0000000000e-03 0.0000000000e+00
5.9000000000e-01 1.0000000000e-03 0.0000000000e+00
6.0000000000e-01 1.0000000000e-03 0.0000000000e+00
6.1000000000e-01 1.0000000000e-03 0.0000000000e+00
6.2000000000e-01 1.0000000000e-03 0.0000000000e+00
6.3000000000e-01 1.0000000000e-03 0.0000000000e+00
6.4000000000e-01 1.0000000000e-03 0.0000000000e+00
6.5000000000e-01 1.0000000000e-03 0.0000000000e+00
6.6000000000e-01 1.0000000000e-03 0.0000000000e+00
6.7000000000e-01 1.0000000000e-03 0.0000000000e+00
6.8000000000e-01 1.0000000000e-03 0.0000000000e+00
6.9000000000e-01 1.0000000000e-03 0.0000000000e+00
7.0000000000e-01 1.0000000000e-03 0.0000000000e+00
7.1000000000e-01 1.0000000000e-03 0.0000000000e+00
7.2000000000e-01 1.0000000000e-03 0.0000000000e+00
7.3000000000e-01 1.0000000000e-03 0.0000000000e+00
7.4000000000e-01 1.0000000000e-03 0.0000000000e+00
7.5000000000e-01 1.0000000000e-03 0.0000000000e+00
7.6000000000e-01 1.0000000000e-03 0.0000000000e+00
7.7000000000e-01 1.0000000000e-03 0.0000000000e+00
7.8000000000e-01 1.0000000000e-03 0.0000000000e+00
7.9000000000e-01 1.0000000000e-03 0.0000000000e+00
8.0000000000e-01 1.0000000000e-03 0.0000000000e+00
8.1000000000e-01 1.0000000000e-03 0.0000000000e+00
8.2000000000e-01 1.0000000000e-03 0.0000000000e+00
8.3000000000e-01 1.0000000000e-03 0.0000000000e+00
8.4000000000e-01 1.0000000000e-03 0.0000000000e+00
8.5000000000e-01 1.0000000000e-03 0.0000000000e+00
8.6000000000e-01 1.0000000000e-03 0.0000000000e+00
8.7000000000e-01 1.0000000000e-03 0.0000000000e+00
8.8000000000e-01 1.0000000000e-03 0.0000000000e+00
8.9000000000e-01 1.0000000000e-03 0.0000000000e+00
9.0000000000e-01 1.0000000000e-03 0.0000000000e+00
9.1000000000e-01 1.0000000000e-03 0.0000000000e+00
9.2000000000e-01 1.0000000000e-03 0.0000000000e+00
[...]
CELL_DATA 1000

SCALARS massDensity float
LOOKUP_TABLE default
9.9999999996e+02
9.9999999996e+02
9.9999999996e+02
9.9999999996e+02
9.9999999996e+02
9.9999999996e+02
9.9999999996e+02
9.9999999996e+02
9.9999999996e+02
9.9999999996e+02
9.9999999996e+02
9.9999999996e+02
9.9999999996e+02
9.9999999996e+02
9.9999999996e+02
9.9999999996e+02
9.9999999996e+02
9.9999999995e+02
9.9999999994e+02
9.9999999988e+02
9.9999999963e+02
9.9999999859e+02
9.9999999448e+02
9.9999997892e+02
9.9999992258e+02
9.9999972761e+02
9.9999908391e+02
9.9999705977e+02
9.9999100902e+02
9.9997385012e+02
9.9992779399e+02
9.9981108349e+02
9.9953261976e+02
9.9890888323e+02
9.9760114507e+02
9.9504194166e+02
9.9037829142e+02
9.8247665033e+02
9.7003311329e+02
9.5179662376e+02
9.2685194911e+02
8.9486230924e+02
8.5617945671e+02
8.1179205766e+02
7.6315692516e+02
7.1199441118e+02
6.6011563758e+02
6.0930918268e+02
5.6127250449e+02
5.1753253316e+02
4.7926535128e+02
4.4691887431e+02
4.1979970737e+02
3.9609727381e+02
3.7370040727e+02
3.5167690735e+02
3.3066588517e+02
3.1191291415e+02
2.9546316169e+02
2.7859655802e+02
2.5655101816e+02
2.2683766223e+02
1.9293760347e+02
1.6286363388e+02
1.4256207454e+02
1.3196647664e+02
1.2747135612e+02
1.2581483485e+02
1.2525527043e+02
1.2507670944e+02
1.2502218179e+02
1.2500617660e+02
1.2500165610e+02
1.2500042750e+02
1.2500010624e+02
1.2500002542e+02
1.2500000586e+02
1.2500000130e+02
1.2500000028e+02
1.2500000006e+02
1.2500000002e+02
1.2500000001e+02
1.2500000001e+02
1.2500000000e+02
1.2500000000e+02
1.2500000000e+02
1.2500000000e+02
1.2500000000e+02
1.2500000000e+02
1.2500000000e+02
1.2500000000e+02
1.2500000000e+02
1.2500000000e+02
1.2500000000e+02
1.2500000000e+02
1.2500000000e+02
1.2500000000e+02
1.2500000000e+02
1.2500000000e+02
1.2500000000e+02
9.9999999996e+02
9.9999999996e+02
9.9999999996e+02
9.9999999996e+02
9.9999999996e+02
9.9999999996e+02
9.9999999996e+02
9.9999999996e+02
9.9999999996e+02
9.9999999996e+02
9.9999999996e+02
9.9999999996e+02
9.9999999996e+02
9.9999999996e+02
9.9999999996e+02
9.9999999996e+02
9.9999999996e+02
9.9999999995e+02
9.9999999994e+02
9.9999999988e+02
9.9999999963e+02
9.9999999859e+02
9.9999999448e+02
9.9999997892e+02
9.9999992258e+02
9.9999972761e+02
9.9999908391e+02
9.9999705977e+02
9.9999100902e+02
9.9997385012e+02
9.9992779399e+02
9.9981108349e+02
9.9953261976e+02
9.9890888323e+02
9.9760114507e+02
9.9504194166e+02
9.9037829142e+02
9.8247665033e+02
9.7003311329e+02
9.5179662376e+02
9.2685194911e+02
8.9486230924e+02
8.5617945671e+02
8.1179205766e+02
7.6315692516e+02
7.1199441118e+02
6.6011563758e+02
6.0930918268e+02
5.6127250449e+02
5.1753253316e+02
4.7926535128e+02
4.4691887431e+02
4.1979970737e+02
3.9609727381e+02
3.7370040727e+02
3.5167690735e+02
3.3066588517e+02
3.1191291415e+02
2.9546316169e+02
2.7859655802e+02
2.5655101816e+02
2.2683766223e+02
1.9293760347e+02
1.6286363388e+02
1.4256207454e+02
1.3196647664e+02
1.2747135612e+02
1.2581483485e+02
1.2525527043e+02
1.2507670944e+02
1.2502218179e+02
1.2500617660e+02
1.2500165610e+02
1.2500042750e+02
1.2500010624e+02
1.2500002542e+02
1.2500000586e+02
1.2500000130e+02
1.2500000028e+02
1.2500000006e+02
1.2500000002e+02
1.2500000001e+02
1.2500000001e+02
1.2500000000e+02
1.2500000000e+02
1.2500000000e+02
1.2500000000e+02
1.2500000000e+02
1.2500000000e+02
1.2500000000e+02
1.2500000000e+02
1.2500000000e+02
1.2500000000e+02
1.2500000000e+02
1.2500000000e+02
1.2500000000e+02
1.2500000000e+02
1.2500000000e+02
1.2500000000e+02
1.2500000000e+02
9.9999999996e+02
9.9999999996e+02
9.9999999996e+02
9.9999999996e+02
9.9999999996e+02
9.9999999996e+02
9.9999999996e+02
9.9999999996e+02
9.9999999996e+02
9.9999999996e+02
9.9999999996e+02
9.9999999996e+02
9.9999999996e+02
9.9999999996e+02
9.9999999996e+02
9.9999999996e+02
9.9999999996e+02
9.9999999995e+02
9.9999999994e+02
9.9999999988e+02
9.9999999963e+02
9.9999999859e+02
9.9999999448e+02
9.9999997892e+02
9.9999992258e+02
9.9999972761e+02
9.9999908391e+02
9.9999705977e+02
9.9999100902e+02
9.9997385012e+02
9.9992779399e+02
9.9981108349e+02
9.9953261976e+02
9.9890888323e+02
9.9760114507e+02
9.9504194166e+02
9.9037829142e+02
9.8247665033e+02
9.7003311329e+02
9.5179662376e+02
9.2685194911e+02
8.9486230924e+02
8.5617945671e+02
8.1179205766e+02
7.6315692516e+02
7.1199441118e+02
6.6011563758e+02
6.0930918268e+02
5.6127250449e+02
5.1753253316e+02
4.7926535128e+02
4.4691887431e+02
4.1979970737e+02
3.9609727381e+02
3.7370040727e+02
3.5167690735e+02
3.3066588517e+02
3.1191291415e+02
2.9546316169e+02
2.7859655802e+02
2.5655101816e+02
2.2683766223e+02
1.9293760347e+02
1.6286363388e+02
1.4256207454e+02
1.3196647664e+02
1.2747135612e+02
1.2581483485e+02
1.2525527043e+02
1.2507670944e+02
1.2502218179e+02
1.2500617660e+02
1.2500165610e+02
1.2500042750e+02
1.2500010624e+02
1.2500002542e+02
1.2500000586e+02
1.2500000130e+02
1.2500000028e+02
1.2500000006e+02
1.2500000002e+02
1.2500000001e+02
1.2500000001e+02
1.2500000000e+02
1.2500000000e+02
1.2500000000e+02
1.2500000000e+02
1.2500000000e+02
1.2500000000e+02
1.2500000000e+02
1.2500000000e+02
1.2500000000e+02
1.2500000000e+02
1.2500000000e+02
1.2500000000e+02
1.2500000000e+02
1.2500000000e+02
1.2500000000e+02
1.2500000000e+02
1.2500000000e+02
9.9999999996e+02
9.9999999996e+02
9.9999999996e+02
9.9999999996e+02
9.9999999996e+02
9.9999999996e+02
9.9999999996e+02
9.9999999996e+02
9.9999999996e+02
9.9999999996e+02
9.9999999996e+02
9.9999999996e+02
9.9999999996e+02
9.9999999996e+02
9.9999999996e+02
9.9999999996e+02
9.9999999996e+02
9.9999999995e+02
9.9999999994e+02
9.9999999988e+02
9.9999999963e+02
9.9999999859e+02
9.9999999448e+02
9.9999997892e+02
9.9999992258e+02
9.9999972761e+02
9.9999908391e+02
9.9999705977e+02
9.9999100902e+02
9.9997385012e+02
9.9992779399e+02
9.9981108349e+02
9.9953261976e+02
9.9890888323e+02
9.9760114507e+02
9.9504194166e+02
9.9037829142e+02
9.8247665033e+02
9.7003311329e+02
9.5179662376e+02
9.2685194911e+02
8.9486230924e+02
8.5617945671e+02
8.1179205766e+02
7.6315692516e+02
7.1199441118e+02
6.6011563758e+02
6.0930918268e+02
5.6127250449e+02
5.1753253316e+02
4.7926535128e+02
4.4691887431e+02
4.1979970737e+02
3.9609727381e+02
3.7370040727e+02
3.5167690735e+02
3.3066588517e+02
3.1191291415e+02
2.9546316169e+02
2.7859655802e+02
2.5655101816e+02
2.2683766223e+02
1.9293760347e+02
1.6286363388e+02
1.4256207454e+02
1.3196647664e+02
1.2747135612e+02
1.2581483485e+02
1.2525527043e+02
1.2507670944e+02
1.2502218179e+02
1.2500617660e+02
1.2500165610e+02
1.2500042750e+02
1.2500010624e+02
1.2500002542e+02
1.2500000586e+02
1.2500000130e+02
1.2500000028e+02
1.2500000006e+02
1.2500000002e+02
1.2500000001e+02
1.2500000001e+02
1.2500000000e+02
1.2500000000e+02
1.2500000000e+02
1.2500000000e+02
1.2500000000e+02
1.2500000000e+02
1.2500000000e+02
1.2500000000e+02
1.2500000000e+02
1.2500000000e+02
1.2500000000e+02
1.2500000000e+02
1.2500000000e+02
1.2500000000e+02
1.2500000000e+02
1.2500000000e+02
1.2500000000e+02
9.9999999996e+02
9.9999999996e+02
9.9999999996e+02
9.9999999996e+02
9.9999999996e+02
9.9999999996e+02
9.9999999996e+02
9.9999999996e+02
9.9999999996e+02
9.9999999996e+02
9.9999999996e+02
9.9999999996e+02
9.9999999996e+02
9.9999999996e+02
9.9999999996e+02
9.9999999996e+02
9.9999999996e+02
9.9999999995e+02
9.9999999994e+02
9.9999999988e+02
9.9999999963e+02
9.9999999859e+02
9.9999999448e+02
9.9999997892e+02
9.9999992258e+02
9.9999972761e+02
9.9999908391e+02
9.9999705977e+02
9.9999100902e+02
9.9997385012e+02
9.9992779399e+02
9.9981108349e+02
9.9953261976e+02
9.9890888323e+02
9.9760114507e+02
9.9504194166e+02
9.9037829142e+02
9.8247665033e+02
9.7003311329e+02
9.5179662376e+02
9.2685194911e+02
8.9486230924e+02
8.5617945671e+02
8.1179205766e+02
7.6315692516e+02
7.1199441118e+02
6.6011563758e+02
6.0930918268e+02
5.6127250449e+02
5.1753253316e+02
4.7926535128e+02
4.4691887431e+02
4.1979970737e+02
3.9609727381e+02
3.7370040727e+02
3.5167690735e+02
3.3066588517e+02
3.1191291415e+02
2.9546316169e+02
2.7859655802e+02
2.5655101816e+02
2.2683766223e+02
1.9293760347e+02
1.6286363388e+02
1.4256207454e+02
1.3196647664e+02
1.2747135612e+02
1.2581483485e+02
1.2525527043e+02
1.2507670944e+02
1.2502218179e+02
1.2500617660e+02
1.2500165610e+02
1.2500042750e+02
1.2500010624e+02
1.2500002542e+02
1.2500000586e+02
1.2500000130e+02
1.2500000028e+02
1.2500000006e+02
1.2500000002e+02
1.2500000001e+02
1.2500000001e+02
1.2500000000e+02
1.2500000000e+02
1.2500000000e+02
1.2500000000e+02
1.2500000000e+02
1.2500000000e+02
1.2500000000e+02
1.2500000000e+02
1.2500000000e+02
1.2500000000e+02
1.2500000000e+02
1.2500000000e+02
1.2500000000e+02
1.2500000000e+02
1.2500000000e+02
1.2500000000e+02
1.2500000000e+02
9.9999999996e+02
9.9999999996e+02
9.9999999996e+02
9.9999999996e+02
9.9999999996e+02
9.9999999996e+02
9.9999999996e+02
9.9999999996e+02
9.9999999996e+02
9.9999999996e+02
9.9999999996e+02
9.9999999996e+02
9.9999999996e+02
9.9999999996e+02
9.9999999996e+02
9.9999999996e+02
9.9999999996e+02
9.9999999995e+02
9.9999999994e+02
9.9999999988e+02
9.9999999963e+02
9.9999999859e+02
9.9999999448e+02
9.9999997892e+02
9.9999992258e+02
9.9999972761e+02
9.9999908391e+02
9.9999705977e+02
9.9999100902e+02
9.9997385012e+02
9.9992779399e+02
9.9981108349e+02
9.9953261976e+02
9.9890888323e+02
9.9760114507e+02
9.9504194166e+02
9.9037829142e+02
9.8247665033e+02
9.7003311329e+02
9.5179662376e+02
9.2685194911e+02
8.9486230924e+02
8.5617945671e+02
8.1179205766e+02
7.6315692516e+02
7.1199441118e+02
6.6011563758e+02
6.0930918268e+02
5.6127250449e+02
5.1753253316e+02
4.7926535128e+02
4.4691887431e+02
4.1979970737e+02
3.9609727381e+02
3.7370040727e+02
3.5167690735e+02
3.3066588517e+02
3.1191291415e+02
2.9546316169e+02
2.7859655802e+02
2.5655101816e+02
2.2683766223e+02
1.9293760347e+02
1.6286363388e+02
1.4256207454e+02
1.3196647664e+02
1.2747135612e+02
1.2581483485e+02
1.2525527043e+02
1.2507670944e+02
1.2502218179e+02
1.2500617660e+02
1.2500165610e+02
1.2500042750e+02
1.2500010624e+02
1.2500002542e+02
1.2500000586e+02
1.2500000130e+02
1.2500000028e+02
1.2500000006e+02
1.2500000002e+02
1.2500000001e+02
1.2500000001e+02
1.2500000000e+02
1.2500000000e+02
1.2500000000e+02
1.2500000000e+02
1.2500000000e+02
1.2500000000e+02
1.2500000000e+02
1.2500000000e+02
1.2500000000e+02
1.2500000000e+02
1.2500000000e+02
1.2500000000e+02
1.2500000000e+02
1.2500000000e+02
1.2500000000e+02
1.2500000000e+02
1.2500000000e+02
9.9999999996e+02
9.9999999996e+02
9.9999999996e+02
9.9999999996e+02
9.9999999996e+02
9.9999999996e+02
9.9999999996e+02
9.9999999996e+02
9.9999999996e+02
9.9999999996e+02
9.9999999996e+02
9.9999999996e+02
9.9999999996e+02
9.9999999996e+02
9.9999999996e+02
9.9999999996e+02
9.9999999996e+02
9.9999999995e+02
9.9999999994e+02
9.9999999988e+02
9.9999999963e+02
9.9999999859e+02
9.9999999448e+02
9.9999997892e+02
9.9999992258e+02
9.9999972761e+02
9.9999908391e+02
9.9999705977e+02
9.9999100902e+02
9.9997385012e+02
9.9992779399e+02
9.9981108349e+02
9.9953261976e+02
9.9890888323e+02
9.9760114507e+02
9.9504194166e+02
9.9037829142e+02
9.8247665033e+02
9.7003311329e+02
9.5179662376e+02
9.2685194911e+02
8.9486230924e+02
8.5617945671e+02
8.1179205766e+02
7.6315692516e+02
7.1199441118e+02
6.6011563758e+02
6.0930918268e+02
5.6127250449e+02
5.1753253316e+02
4.7926535128e+02
4.4691887431e+02
4.1979970737e+02
3.9609727381e+02
3.7370040727e+02
3.5167690735e+02
3.3066588517e+02
3.1191291415e+02
2.9546316169e+02
2.7859655802e+02
2.5655101816e+02
2.2683766223e+02
1.9293760347e+02
1.6286363388e+02
1.4256207454e+02
1.3196647664e+02
1.2747135612e+02
1.2581483485e+02
1.2525527043e+02
1.2507670944e+02
1.2502218179e+02
1.2500617660e+02
1.2500165610e+02
1.2500042750e+02
1.2500010624e+02
1.2500002542e+02
1.2500000586e+02
1.2500000130e+02
1.2500000028e+02
1.2500000006e+02
1.2500000002e+02
1.2500000001e+02
1.2500000001e+02
1.2500000000e+02
1.2500000000e+02
1.2500000000e+02
1.2500000000e+02
1.2500000000e+02
1.2500000000e+02
1.2500000000e+02
1.2500000000e+02
1.2500000000e+02
1.2500000000e+02
1.2500000000e+02
1.2500000000e+02
1.2500000000e+02
1.2500000000e+02
1.2500000000e+02
1.2500000000e+02
1.2500000000e+02
9.9999999996e+02
9.9999999996e+02
9.9999999996e+02
9.9999999996e+02
9.9999999996e+02
9.9999999996e+02
9.9999999996e+02
9.9999999996e+02
9.9999999996e+02
9.9999999996e+02
9.9999999996e+02
9.9999999996e+02
9.9999999996e+02
9.9999999996e+02
9.9999999996e+02
9.9999999996e+02
9.9999999996e+02
9.9999999995e+02
9.9999999994e+02
9.9999999988e+02
9.9999999963e+02
9.9999999859e+02
9.9999999448e+02
9.9999997892e+02
9.9999992258e+02
9.9999972761e+02
9.9999908391e+02
9.9999705977e+02
9.9999100902e+02
9.9997385012e+02
9.9992779399e+02
9.9981108349e+02
9.9953261976e+02
9.9890888323e+02
9.9760114507e+02
9.9504194166e+02
9.9037829142e+02
9.8247665033e+02
9.7003311329e+02
9.5179662376e+02
9.2685194911e+02
8.9486230924e+02
8.5617945671e+02
8.1179205766e+02
7.6315692516e+02
7.1199441118e+02
6.6011563758e+02
6.0930918268e+02
5.6127250449e+02
5.1753253316e+02
4.7926535128e+02
4.4691887431e+02
4.1979970737e+02
3.9609727381e+02
3.7370040727e+02
3.5167690735e+02
3.3066588517e+02
3.1191291415e+02
2.9546316169e+02
2.7859655802e+02
2.5655101816e+02
2.2683766223e+02
1.9293760347e+02
1.6286363388e+02
1.4256207454e+02
1.3196647664e+02
1.2747135612e+02
1.2581483485e+02
1.2525527043e+02
1.2507670944e+02
1.2502218179e+02
1.2500617660e+02
1.2500165610e+02
1.2500042750e+02
1.2500010624e+02
1.2500002542e+02
1.2500000586e+02
1.2500000130e+02
1.2500000028e+02
1.2500000006e+02
1.2500000002e+02
1.2500000001e+02
1.2500000001e+02
1.2500000000e+02
1.2500000000e+02
1.2500000000e+02
1.2500000000e+02
1.2500000000e+02
1.2500000000e+02
1.2500000000e+02
1.2500000000e+02
1.2500000000e+02
1.2500000000e+02
1.2500000000e+02
1.2500000000e+02
1.2500000000e+02
1.2500000000e+02
1.2500000000e+02
1.2500000000e+02
1.2500000000e+02
9.9999999996e+02
9.9999999996e+02
9.9999999996e+02
9.9999999996e+02
9.9999999996e+02
9.9999999996e+02
9.9999999996e+02
9.9999999996e+02
9.9999999996e+02
9.9999999996e+02
9.9999999996e+02
9.9999999996e+02
9.9999999996e+02
9.9999999996e+02
9.9999999996e+02
9.9999999996e+02
9.9999999996e+02
9.9999999995e+02
9.9999999994e+02
9.9999999988e+02
9.9999999963e+02
9.9999999859e+02
9.9999999448e+02
9.9999997892e+02
9.9999992258e+02
9.9999972761e+02
9.9999908391e+02
9.9999705977e+02
9.9999100902e+02
9.9997385012e+02
9.9992779399e+02
9.9981108349e+02
9.9953261976e+02
9.9890888323e+02
9.9760114507e+02
9.9504194166e+02
9.9037829142e+02
9.8247665033e+02
9.7003311329e+02
9.5179662376e+02
9.2685194911e+02
8.9486230924e+02
8.5617945671e+02
8.1179205766e+02
7.6315692516e+02
7.1199441118e+02
6.6011563758e+02
6.0930918268e+02
5.6127250449e+02
5.1753253316e+02
4.7926535128e+02
4.4691887431e+02
4.1979970737e+02
3.9609727381e+02
3.7370040727e+02
3.5167690735e+02
3.3066588517e+02
3.1191291415e+02
2.9546316169e+02
2.7859655802e+02
2.5655101816e+02
2.2683766223e+02
1.9293760347e+02
1.6286363388e+02
1.4256207454e+02
1.3196647664e+02
1.2747135612e+02
1.2581483485e+02
1.2525527043e+02
1.2507670944e+02
1.2502218179e+02
1.2500617660e+02
1.2500165610e+02
1.2500042750e+02
1.2500010624e+02
1.2500002542e+02
1.2500000586e+02
1.2500000130e+02
1.2500000028e+02
1.2500000006e+02
1.2500000002e+02
1.2500000001e+02
1.2500000001e+02
1.2500000000e+02
1.2500000000e+02
1.2500000000e+02
1.2500000000e+02
1.2500000000e+02
1.2500000000e+02
1.2500000000e+02
1.2500000000e+02
1.2500000000e+02
1.2500000000e+02
1.2500000000e+02
1.2500000000e+02
1.2500000000e+02
1.2500000000e+02
1.2500000000e+02
1.2500000000e+02
1.2500000000e+02
9.9999999996e+02
9.9999999996e+02
9.9999999996e+02
9.9999999996e+02
9.9999999996e+02
9.9999999996e+02
9.9999999996e+02
9.9999999996e+02
9.9999999996e+02
9.9999999996e+02
9.9999999996e+02
9.9999999996e+02
9.9999999996e+02
9.9999999996e+02
9.9999999996e+02
9.9999999996e+02
9.9999999996e+02
9.9999999995e+02
9.9999999994e+02
9.9999999988e+02
9.9999999963e+02
9.9999999859e+02
9.9999999448e+02
9.9999997892e+02
9.9999992258e+02
9.9999972761e+02
9.9999908391e+02
9.9999705977e+02
9.9999100902e+02
9.9997385012e+02
9.9992779399e+02
9.9981108349e+02
9.9953261976e+02
9.9890888323e+02
9.9760114507e+02
9.9504194166e+02
9.9037829142e+02
9.8247665033e+02
9.7003311329e+02
9.5179662376e+02
9.2685194911e+02
8.9486230924e+02
8.5617945671e+02
8.1179205766e+02
7.6315692516e+02
7.1199441118e+02
6.6011563758e+02
6.0930918268e+02
5.6127250449e+02
5.1753253316e+02
4.7926535128e+02
4.4691887431e+02
4.1979970737e+02
3.9609727381e+02
3.7370040727e+02
3.5167690735e+02
3.3066588517e+02
3.1191291415e+02
2.9546316169e+02
2.7859655802e+02
2.5655101816e+02
2.2683766223e+02
1.9293760347e+02
1.6286363388e+02
1.4256207454e+02
1.3196647664e+02
1.2747135612e+02
1.2581483485e+02
1.2525527043e+02
1.2507670944e+02
1.2502218179e+02
1.2500617660e+02
1.2500165610e+02
1.2500042750e+02
1.2500010624e+02
1.2500002542e+02
1.2500000586e+02
1.2500000130e+02
1.2500000028e+02
1.2500000006e+02
1.2500000002e+02
1.2500000001e+02
1.2500000001e+02
1.2500000000e+02
1.2500000000e+02
1.2500000000e+02
1.2500000000e+02
1.2500000000e+02
1.2500000000e+02
1.2500000000e+02
1.2500000000e+02
1.2500000000e+02
1.2500000000e+02
1.2500000000e+02
1.2500000000e+02
1.2500000000e+02
1.2500000000e+02
1.2500000000e+02
1.2500000000e+02
1.2500000000e+02

SCALARS molarDensity float
LOOKUP_TABLE default
1.2977624132e+05
1.2977624132e+05
1.2977624132e+05
1.2977624132e+05
1.2977624132e+05
1.2977624132e+05
1.2977624132e+05
1.2977624132e+05
1.2977624132e+05
1.2977624132e+05
1.2977624132e+05
1.2977624132e+05
1.2977624132e+05
1.2977624132e+05
1.2977624132e+05
1.2977624132e+05
1.2977624132e+05
1.2977624132e+05
1.2977624132e+05
1.2977624131e+05
1.2977624128e+05
1.2977624114e+05
1.2977624061e+05
1.2977623859e+05
1.2977623128e+05
1.2977620598e+05
1.2977612244e+05
1.2977585975e+05
1.2977507451e+05
1.2977284769e+05
1.2976687070e+05
1.2975172445e+05
1.2971558648e+05
1.2963464029e+05
1.2946492695e+05
1.2913280315e+05
1.2852757215e+05
1.2750212687e+05
1.2588725141e+05
1.2352058834e+05
1.2028336222e+05
1.1613186700e+05
1.1111175179e+05
1.0535132198e+05
9.9039637290e+04
9.2399958528e+04
8.5667326287e+04
7.9073855534e+04
7.2839835993e+04
6.7163426918e+04
6.2197255887e+04
5.7999451686e+04
5.4480028133e+04
5.1404015395e+04
4.8497434238e+04
4.5639307198e+04
4.2912575713e+04
4.0478885619e+04
3.8344098574e+04
3.6155214146e+04
3.3294226845e+04
2.9438139196e+04
2.5038716989e+04
2.1135830254e+04
1.8501170189e+04
1.7126113319e+04
1.6542753474e+04
1.6327776370e+04
1.6255158203e+04
1.6231985229e+04
1.6224908835e+04
1.6222831742e+04
1.6222245088e+04
1.6222085645e+04
1.6222043953e+04
1.6222033465e+04
1.6222030926e+04
1.6222030335e+04
1.6222030203e+04
1.6222030174e+04
1.6222030168e+04
1.6222030167e+04
1.6222030167e+04
1.6222030166e+04
1.6222030166e+04
1.6222030166e+04
1.6222030166e+04
1.6222030166e+04
1.6222030166e+04
1.6222030166e+04
1.6222030166e+04
1.6222030166e+04
1.6222030166e+04
1.6222030166e+04
1.6222030166e+04
1.6222030166e+04
1.6222030166e+04
1.6222030166e+04
1.6222030166e+04
1.6222030166e+04
1.2977624132e+05
1.2977624132e+05
1.2977624132e+05
1.2977624132e+05
1.2977624132e+05
1.2977624132e+05
1.2977624132e+05
1.2977624132e+05
1.2977624132e+05
1.2977624132e+05
1.2977624132e+05
1.2977624132e+05
1.2977624132e+05
1.2977624132e+05
1.2977624132e+05
1.2977624132e+05
1.2977624132e+05
1.2977624132e+05
1.2977624132e+05
1.2977624131e+05
1.2977624128e+05
1.2977624114e+05
1.2977624061e+05
1.2977623859e+05
1.2977623128e+05
1.2977620598e+05
1.2977612244e+05
1.2977585975e+05
1.2977507451e+05
1.2977284769e+05
1.2976687070e+05
1.2975172445e+05
1.2971558648e+05
1.2963464029e+05
1.2946492695e+05
1.2913280315e+05
1.2852757215e+05
1.2750212687e+05
1.2588725141e+05
1.2352058834e+05
1.2028336222e+05
1.1613186700e+05
1.1111175179e+05
1.0535132198e+05
9.9039637290e+04
9.2399958528e+04
8.5667326287e+04
7.9073855534e+04
7.2839835993e+04
6.7163426918e+04
6.2197255887e+04
5.7999451686e+04
5.4480028133e+04
5.1404015395e+04
4.8497434238e+04
4.5639307198e+04
4.2912575713e+04
4.0478885619e+04
3.8344098574e+04
3.6155214146e+04
3.3294226845e+04
2.9438139196e+04
2.5038716989e+04
2.1135830254e+04
1.8501170189e+04
1.7126113319e+04
1.6542753474e+04
1.6327776370e+04
1.6255158203e+04