# vtk DataFile Version 2.0
Blank
ASCII
DATASET STRUCTURED_GRID
DIMENSIONS 101 11 2
POINTS 2222 float
0.0000000000e+00 0.0000000000e+00 0.0000000000e+00
1.0000000000e-02 0.0000000000e+00 0.0000000000e+00
2.0000000000e-02 0.0000000000e+00 0.0000000000e+00
3.0000000000e-02 0.0000000000e+00 0.0000000000e+00
4.0000000000e-02 0.0000000000e+00 0.0000000000e+00
5.0000000000e-02 0.0000000000e+00 0.0000000000e+00
6.0000000000e-02 0.0000000000e+00 0.0000000000e+00
7.0000000000e-02 0.0000000000e+00 0.0000000000e+00
8.0000000000e-02 0.0000000000e+00 0.0000000000e+00
9.0000000000e-02 0.0000000000e+00 0.0000000000e+00
1.0000000000e-01 0.0000000000e+00 0.0000000000e+00
1.1000000000e-01 0.0000000000e+00 0.0000000000e+00
1.2000000000e-01 0.0000000000e+00 0.0000000000e+00
1.3000000000e-01 0.0000000000e+00 0.0000000000e+00
1.4000000000e-01 0.0000000000e+00 0.0000000000e+00
1.5000000000e-01 0.0000000000e+00 0.0000000000e+00
1.6000000000e-01 0.0000000000e+00 0.0000000000e+00
1.7000000000e-01 0.0000000000e+00 0.0000000000e+00
1.8000000000e-01 0.0000000000e+00 0.0000000000e+00
1.9000000000e-01 0.0000000000e+00 0.0000000000e+00
2.0000000000e-01 0.0000000000e+00 0.0000000000e+00
2.1000000000e-01 0.0000000000e+00 0.0000000000e+00
2.2000000000e-01 0.0000000000e+00 0.0000000000e+00
2.3000000000e-01 0.0000000000e+00 0.0000000000e+00
2.4000000000e-01 0.0000000000e+00 0.0000000000e+00
2.5000000000e-01 0.0000000000e+00 0.0000000000e+00
2.6000000000e-01 0.0000000000e+00 0.0000000000e+00
2.7000000000e-01 0.0000000000e+00 0.0000000000e+00
2.8000000000e-01 0.0000000000e+00 0.0000000000e+00
2.9000000000e-01 0.0000000000e+00 0.0000000000e+00
3.0000000000e-01 0.0000000000e+00 0.0000000000e+00
3.1000000000e-01 0.0000000000e+00 0.0000000000e+00
3.2000000000e-01 0.0000000000e+00 0.0000000000e+00
3.3000000000e-01 0.0000000000e+00 0.0000000000e+00
3.4000000000e-01 0.0000000000e+00 0.0000000000e+00
3.5000000000e-01 0.0000000000e+00 0.0000000000e+00
3.6000000000e-01 0.0000000000e+00 0.0000000000e+00
3.7000000000e-01 0.0000000000e+00 0.0000000000e+00
3.8000000000e-01 0.0000000000e+00 0.0000000000e+00
3.9000000000e-01 0.0000000000e+00 0.0000000000e+00
4.0000000000e-01 0.0000000000e+00 0.0000000000e+00
4.1000000000e-01 0.0000000000e+00 0.0000000000e+00
4.2000000000e-01 0.0000000000e+00 0.0000000000e+00
4.3000000000e-01 0.0000000000e+00 0.0000000000e+00
4.4000000000e-01 0.0000000000e+00 0.0000000000e+00
4.5000000000e-01 0.0000000000e+00 0.0000000000e+00
4.6000000000e-01 0.0000000000e+00 0.0000000000e+00
4.7000000000e-01 0.0000000000e+00 0.0000000000e+00
4.8000000000e-01 0.0000000000e+00 0.0000000000e+00
4.9000000000e-01 0.0000000000e+00 0.0000000000e+00
5.0000000000e-01 0.0000000000e+00 0.0000000000e+00
5.1000000000e-01 0.0000000000e+00 0.0000000000e+00
5.2000000000e-01 0.0000000000e+00 0.0000000000e+00
5.3000000000e-01 0.0000000000e+00 0.0000000000e+00
5.4000000000e-01 0.0000000000e+00 0.0000000000e+00
5.5000000000e-01 0.0000000000e+00 0.0000000000e+00
5.6000000000e-01 0.0000000000e+00 0.0000000000e+00
5.7000000000e-01 0.0000000000e+00 0.0000000000e+00
5.8000000000e-01 0.0000000000e+00 0.0000000000e+00
5.9000000000e-01 0.0000000000e+00 0.0000000000e+00
6.0000000000e-01 0.0000000000e+00 0.0000000000e+00
6.1000000000e-01 0.0000000000e+00 0.0000000000e+00
6.2000000000e-01 0.0000000000e+00 0.0000000000e+00
6.3000000000e-01 0.0000000000e+00 0.0000000000e+00
6.4000000000e-01 0.0000000000e+00 0.0000000000e+00
6.5000000000e-01 0.0000000000e+00 0.0000000000e+00
6.6000000000e-01 0.0000000000e+00 0.0000000000e+00
6.7000000000e-01 0.0000000000e+00 0.0000000000e+00
6.8000000000e-01 0.0000000000e+00 0.0000000000e+00
6.9000000000e-01 0.0000000000e+00 0.0000000000e+00
7.0000000000e-01 0.0000000000e+00 0.0000000000e+00
7.1000000000e-01 0.0000000000e+00 0.0000000000e+00
7.2000000000e-01 0.0000000000e+00 0.0000000000e+00
7.3000000000e-01 0.0000000000e+00 0.0000000000e+00
7.4000000000e-01 0.0000000000e+00 0.0000000000e+00
7.5000000000e-01 0.0000000000e+00 0.0000000000e+00
7.6000000000e-01 0.0000000000e+00 0.0000000000e+00
7.7000000000e-01 0.0000000000e+00 0.0000000000e+00
7.8000000000e-01 0.0000000000e+00 0.0000000000e+00
7.9000000000e-01 0.0000000000e+00 0.0000000000e+00
8.0000000000e-01 0.0000000000e+00 0.0000000000e+00
8.1000000000e-01 0.0000000000e+00 0.0000000000e+00
8.2000000000e-01 0.0000000000e+00 0.0000000000e+00
8.3000000000e-01 0.0000000000e+00 0.0000000000e+00
8.4000000000e-01 0.0000000000e+00 0.0000000000e+00
8.5000000000e-01 0.0000000000e+00 0.0000000000e+00
8.6000000000e-01 0.0000000000e+00 0.0000000000e+00
8.7000000000e-01 0.0000000000e+00 0.0000000000e+00
8.8000000000e-01 0.0000000000e+00 0.0000000000e+00
8.9000000000e-01 0.0000000000e+00 0.0000000000e+00
9.0000000000e-01 0.0000000000e+00 0.0000000000e+00
9.1000000000e-01 0.0000000000e+00 0.0000000000e+00
9.2000000000e-01 0.0000000000e+00 0.0000000000e+00
9.3000000000e-01 0.0000000000e+00 0.0000000000e+00
9.4000000000e-01 0.0000000000e+00 0.0000000000e+00
9.5000000000e-01 0.0000000000e+00 0.0000000000e+00
9.6000000000e-01 0.0000000000e+00 0.0000000000e+00
9.7000000000e-01 0.0000000000e+00 0.0000000000e+00
9.8000000000e-01 0.0000000000e+00 0.0000000000e+00
9.9000000000e-01 0.0000000000e+00 0.0000000000e+00
1.0000000000e+00 0.0000000000e+00 0.0000000000e+00
0.0000000000e+00 1.0000000000e-03 0.0000000000e+00
1.0000000000e-02 1.0000000000e-03 0.0000000000e+00
2.0000000000e-02 1.0000000000e-03 0.0000000000e+00
3.0000000000e-02 1.0000000000e-03 0.0000000000e+00
4.0000000000e-02 1.0000000000e-03 0.0000000000e+00
5.0000000000e-02 1.0000000000e-03 0.0000000000e+00
6.0000000000e-02 1.0000000000e-03 0.0000000000e+00
7.0000000000e-02 1.0000000000e-03 0.0000000000e+00
8.0000000000e-02 1.0000000000e-03 0.0000000000e+00
9.0000000000e-02 1.0000000000e-03 0.0000000000e+00
1.0000000000e-01 1.0000000000e-03 0.0000000000e+00
1.1000000000e-01 1.0000000000e-03 0.0000000000e+00
1.2000000000e-01 1.0000000000e-03 0.0000000000e+00
1.3000000000e-01 1.0000000000e-03 0.0000000000e+00
1.4000000000e-01 1.0000000000e-03 0.0000000000e+00
1.5000000000e-01 1.0000000000e-03 0.0000000000e+00
1.6000000000e-01 1.0000000000e-03 0.0000000000e+00
1.7000000000e-01 1.0000000000e-03 0.0000000000e+00
1.8000000000e-01 1.0000000000e-03 0.0000000000e+00
1.9000000000e-01 1.0000000000e-03 0.0000000000e+00
2.0000000000e-01 1.0000000000e-03 0.0000000000e+00
2.1000000000e-01 1.0000000000e-03 0.0000000000e+00
2.2000000000e-01 1.0000000000e-03 0.0000000000e+00
2.3000000000e-01 1.0000000000e-03 0.0000000000e+00
2.4000000000e-01 1.0000000000e-03 0.0000000000e+00
2.5000000000e-01 1.0000000000e-03 0.0000000000e+00
2.6000000000e-01 1.0000000000e-03 0.0000000000e+00
2.7000000000e-01 1.0000000000e-03 0.0000000000e+00
2.8000000000e-01 1.0000000000e-03 0.0000000000e+00
2.9000000000e-01 1.0000000000e-03 0.0000000000e+00
3.0000000000e-01 1.0000000000e-03 0.0000000000e+00
3.1000000000e-01 1.0000000000e-03 0.0000000000e+00
3.2000000000e-01 1.0000000000e-03 0.0000000000e+00
3.3000000000e-01 1.0000000000e-03 0.0000000000e+00
3.4000000000e-01 1.0000000000e-03 0.0000000000e+00
3.5000000000e-01 1.0000000000e-03 0.0000000000e+00
3.6000000000e-01 1.0000000000e-03 0.0000000000e+00
3.7000000000e-01 1.0000000000e-03 0.0000000000e+00
3.8000000000e-01 1.0000000000e-03 0.0000000000e+00
3.9000000000e-01 1.0000000000e-03 0.0000000000e+00
4.0000000000e-01 1.0000000000e-03 0.0000000000e+00
4.1000000000e-01 1.0000000000e-03 0.0000000000e+00
4.2000000000e-01 1.0000000000e-03 0.0000000000e+00
4.3000000000e-01 1.0000000000e-03 0.0000000000e+00
4.4000000000e-01 1.0000000000e-03 0.0000000000e+00
4.5000000000e-01 1.0000000000e-03 0.0000000000e+00
4.6000000000e-01 1.0000000000e-03 0.0000000000e+00
4.7000000000e-01 1.0000000000e-03 0.0000000000e+00
4.8000000000e-01 1.0000000000e-03 0.0000000000e+00
4.9000000000e-01 1.0000000000e-03 0.0000000000e+00
5.0000000000e-01 1.0000000000e-03 0.0000000000e+00
5.1000000000e-01 1.0000000000e-03 0.0000000000e+00
5.2000000000e-01 1.0000000000e-03 0.0000000000e+00
5.3000000000e-01 1.0000000000e-03 0.0000000000e+00
5.4000000000e-01 1.0000000000e-03 0.0000000000e+00
5.5000000000e-01 1.0000000000e-03 0.0000000000e+00
5.6000000000e-01 1.0000000000e-03 0.0000000000e+00
5.7000000000e-01 1.0000000000e-03 0.0000000000e+00
5.8000000000e-01 1.0000000000e-03 0.0000000000e+00
5.9000000000e-01 1.0000000000e-03 0.0000000000e+00
6.0000000000e-01 1.0000000000e-03 0.0000000000e+00
6.1000000000e-01 1.0000000000e-03 0.0000000000e+00
6.2000000000e-01 1.0000000000e-03 0.0000000000e+00
6.3000000000e-01 1.0000000000e-03 0.0000000000e+00
6.4000000000e-01 1.0000000000e-03 0.0000000000e+00
6.5000000000e-01 1.0000000000e-03 0.0000000000e+00
6.6000000000e-01 1.0000000000e-03 0.0000000000e+00
6.7000000000e-01 1.0000000000e-03 0.0000000000e+00
6.8000000000e-01 1.0000000000e-03 0.0000000000e+00
6.9000000000e-01 1.0000000000e-03 0.0000000000e+00
7.0000000000e-01 1.0000000000e-03 0.0000000000e+00
7.1000000000e-01 1.0000000000e-03 0.0000000000e+00
7.2000000000e-01 1.0000000000e-03 0.0000000000e+00
7.3000000000e-01 1.0000000000e-03 0.0000000000e+00
7.4000000000e-01 1.0000000000e-03 0.0000000000e+00
7.5000000000e-01 1.0000000000e-03 0.0000000000e+00
7.6000000000e-01 1.0000000000e-03 0.0000000000e+00
7.7000000000e-01 1.0000000000e-03 0.0000000000e+00
7.8000000000e-01 1.0000000000e-03 0.0000000000e+00
7.9000000000e-01 1.0000000000e-03 0.0000000000e+00
8.0000000000e-01 1.0000000000e-03 0.0000000000e+00
8.1000000000e-01 1.0000000000e-03 0.0000000000e+00
8.2000000000e-01 1.0000000000e-03 0.0000000000e+00
8.3000000000e-01 1.0000000000e-03 0.0000000000e+00
8.4000000000e-01 1.0000000000e-03 0.0000000000e+00
8.5000000000e-01 1.0000000000e-03 0.0000000000e+00
8.6000000000e-01 1.0000000000e-03 0.0000000000e+00
8.7000000000e-01 1.0000000000e-03 0.0000000000e+00
8.8000000000e-01 1.0000000000e-03 0.0000000000e+00
8.9000000000e-01 1.0000000000e-03 0.0000000000e+00
9.0000000000e-01 1.0000000000e-03 0.0000000000e+00
9.1000000000e-01 1.0000000000e-03 0.0000000000e+00
9.2000000000e-01 1.0000000000e-03 0.0000000000e+00
[...]
CELL_DATA 1000

SCALARS massDensity float
LOOKUP_TABLE default
9.9999999924e+02
9.9999999850e+02
9.9999999610e+02
9.9999998973e+02
9.9999997344e+02
9.9999993276e+02
9.9999983378e+02
9.9999959911e+02
9.9999905724e+02
9.9999783945e+02
9.9999517742e+02
9.9998952136e+02
9.9997784905e+02
9.9995447146e+02
9.9990906866e+02
9.9982363563e+02
9.9966802692e+02
9.9939393057e+02
9.9892745040e+02
9.9816107094e+02
9.9694656384e+02
9.9509114772e+02
9.9235955438e+02
9.8848415578e+02
9.8318374927e+02
9.7618923437e+02
9.6727202802e+02
9.5626968938e+02
9.4310357802e+02
9.2778540367e+02
9.1041241371e+02
8.9115356915e+02
8.7023053615e+02
8.4789745553e+02
8.2442259145e+02
8.0007368135e+02
7.7510761054e+02
7.4976418381e+02
7.2426331375e+02
6.9880480842e+02
6.7357000059e+02
6.4872460703e+02
6.2442236469e+02
6.0080911223e+02
5.7802703973e+02
5.5621878819e+02
5.3553091165e+02
5.1611588692e+02
4.9813135979e+02
4.8173473455e+02
4.6707081834e+02
4.5425057348e+02
4.4332081491e+02
4.3422819434e+02
4.2678488796e+02
4.2064680986e+02
4.1532122196e+02
4.1018983431e+02
4.0458499473e+02
3.9788594547e+02
3.8963150466e+02
3.7962052275e+02
3.6796458021e+02
3.5506949128e+02
3.4154920609e+02
3.2810126632e+02
3.1538247224e+02
3.0391515499e+02
2.9403792649e+02
2.8590141611e+02
2.7950416333e+02
2.7475890066e+02
2.7155062283e+02
2.6966600500e+02
2.6838085621e+02
2.6566590053e+02
2.5778925566e+02
2.4087289847e+02
2.1457979573e+02
1.8432077188e+02
1.5812771486e+02
1.4075922450e+02
1.3161669754e+02
1.2756546426e+02
1.2595210752e+02
1.2534519342e+02
1.2512338878e+02
1.2504362631e+02
1.2501526744e+02
1.2500528637e+02
1.2500180963e+02
1.2500061191e+02
1.2500020421e+02
1.2500006721e+02
1.2500002180e+02
1.2500000697e+02
1.2500000219e+02
1.2500000068e+02
1.2500000021e+02
1.2500000009e+02
9.9999999924e+02
9.9999999850e+02
9.9999999610e+02
9.9999998973e+02
9.9999997344e+02
9.9999993276e+02
9.9999983378e+02
9.9999959911e+02
9.9999905724e+02
9.9999783945e+02
9.9999517742e+02
9.9998952136e+02
9.9997784905e+02
9.9995447146e+02
9.9990906866e+02
9.9982363563e+02
9.9966802692e+02
9.9939393057e+02
9.9892745040e+02
9.9816107094e+02
9.9694656384e+02
9.9509114772e+02
9.9235955438e+02
9.8848415578e+02
9.8318374927e+02
9.7618923437e+02
9.6727202802e+02
9.5626968938e+02
9.4310357802e+02
9.2778540367e+02
9.1041241371e+02
8.9115356915e+02
8.7023053615e+02
8.4789745553e+02
8.2442259145e+02
8.0007368135e+02
7.7510761054e+02
7.4976418381e+02
7.2426331375e+02
6.9880480842e+02
6.7357000059e+02
6.4872460703e+02
6.2442236469e+02
6.0080911223e+02
5.7802703973e+02
5.5621878819e+02
5.3553091165e+02
5.1611588692e+02
4.9813135979e+02
4.8173473455e+02
4.6707081834e+02
4.5425057348e+02
4.4332081491e+02
4.3422819434e+02
4.2678488796e+02
4.2064680986e+02
4.1532122196e+02
4.1018983431e+02
4.0458499473e+02
3.9788594547e+02
3.8963150466e+02
3.7962052275e+02
3.6796458021e+02
3.5506949128e+02
3.4154920609e+02
3.2810126632e+02
3.1538247224e+02
3.0391515499e+02
2.9403792649e+02
2.8590141611e+02
2.7950416333e+02
2.7475890066e+02
2.7155062283e+02
2.6966600500e+02
2.6838085621e+02
2.6566590053e+02
2.5778925566e+02
2.4087289847e+02
2.1457979573e+02
1.8432077188e+02
1.5812771486e+02
1.4075922450e+02
1.3161669754e+02
1.2756546426e+02
1.2595210752e+02
1.2534519342e+02
1.2512338878e+02
1.2504362631e+02
1.2501526744e+02
1.2500528637e+02
1.2500180963e+02
1.2500061191e+02
1.2500020421e+02
1.2500006721e+02
1.2500002180e+02
1.2500000697e+02
1.2500000219e+02
1.2500000068e+02
1.2500000021e+02
1.2500000009e+02
9.9999999924e+02
9.9999999850e+02
9.9999999610e+02
9.9999998973e+02
9.9999997344e+02
9.9999993276e+02
9.9999983378e+02
9.9999959911e+02
9.9999905724e+02
9.9999783945e+02
9.9999517742e+02
9.9998952136e+02
9.9997784905e+02
9.9995447146e+02
9.9990906866e+02
9.9982363563e+02
9.9966802692e+02
9.9939393057e+02
9.9892745040e+02
9.9816107094e+02
9.9694656384e+02
9.9509114772e+02
9.9235955438e+02
9.8848415578e+02
9.8318374927e+02
9.7618923437e+02
9.6727202802e+02
9.5626968938e+02
9.4310357802e+02
9.2778540367e+02
9.1041241371e+02
8.9115356915e+02
8.7023053615e+02
8.4789745553e+02
8.2442259145e+02
8.0007368135e+02
7.7510761054e+02
7.4976418381e+02
7.2426331375e+02
6.9880480842e+02
6.7357000059e+02
6.4872460703e+02
6.2442236469e+02
6.0080911223e+02
5.7802703973e+02
5.5621878819e+02
5.3553091165e+02
5.1611588692e+02
4.9813135979e+02
4.8173473455e+02
4.6707081834e+02
4.5425057348e+02
4.4332081491e+02
4.3422819434e+02
4.2678488796e+02
4.2064680986e+02
4.1532122196e+02
4.1018983431e+02
4.0458499473e+02
3.9788594547e+02
3.8963150466e+02
3.7962052275e+02
3.6796458021e+02
3.5506949128e+02
3.4154920609e+02
3.2810126632e+02
3.1538247224e+02
3.0391515499e+02
2.9403792649e+02
2.8590141611e+02
2.7950416333e+02
2.7475890066e+02
2.7155062283e+02
2.6966600500e+02
2.6838085621e+02
2.6566590053e+02
2.5778925566e+02
2.4087289847e+02
2.1457979573e+02
1.8432077188e+02
1.5812771486e+02
1.4075922450e+02
1.3161669754e+02
1.2756546426e+02
1.2595210752e+02
1.2534519342e+02
1.2512338878e+02
1.2504362631e+02
1.2501526744e+02
1.2500528637e+02
1.2500180963e+02
1.2500061191e+02
1.2500020421e+02
1.2500006721e+02
1.2500002180e+02
1.2500000697e+02
1.2500000219e+02
1.2500000068e+02
1.2500000021e+02
1.2500000009e+02
9.9999999924e+02
9.9999999850e+02
9.9999999610e+02
9.9999998973e+02
9.9999997344e+02
9.9999993276e+02
9.9999983378e+02
9.9999959911e+02
9.9999905724e+02
9.9999783945e+02
9.9999517742e+02
9.9998952136e+02
9.9997784905e+02
9.9995447146e+02
9.9990906866e+02
9.9982363563e+02
9.9966802692e+02
9.9939393057e+02
9.9892745040e+02
9.9816107094e+02
9.9694656384e+02
9.9509114772e+02
9.9235955438e+02
9.8848415578e+02
9.8318374927e+02
9.7618923437e+02
9.6727202802e+02
9.5626968938e+02
9.4310357802e+02
9.2778540367e+02
9.1041241371e+02
8.9115356915e+02
8.7023053615e+02
8.4789745553e+02
8.2442259145e+02
8.0007368135e+02
7.7510761054e+02
7.4976418381e+02
7.2426331375e+02
6.9880480842e+02
6.7357000059e+02
6.4872460703e+02
6.2442236469e+02
6.0080911223e+02
5.7802703973e+02
5.5621878819e+02
5.3553091165e+02
5.1611588692e+02
4.9813135979e+02
4.8173473455e+02
4.6707081834e+02
4.5425057348e+02
4.4332081491e+02
4.3422819434e+02
4.2678488796e+02
4.2064680986e+02
4.1532122196e+02
4.1018983431e+02
4.0458499473e+02
3.9788594547e+02
3.8963150466e+02
3.7962052275e+02
3.6796458021e+02
3.5506949128e+02
3.4154920609e+02
3.2810126632e+02
3.1538247224e+02
3.0391515499e+02
2.9403792649e+02
2.8590141611e+02
2.7950416333e+02
2.7475890066e+02
2.7155062283e+02
2.6966600500e+02
2.6838085621e+02
2.6566590053e+02
2.5778925566e+02
2.4087289847e+02
2.1457979573e+02
1.8432077188e+02
1.5812771486e+02
1.4075922450e+02
1.3161669754e+02
1.2756546426e+02
1.2595210752e+02
1.2534519342e+02
1.2512338878e+02
1.2504362631e+02
1.2501526744e+02
1.2500528637e+02
1.2500180963e+02
1.2500061191e+02
1.2500020421e+02
1.2500006721e+02
1.2500002180e+02
1.2500000697e+02
1.2500000219e+02
1.2500000068e+02
1.2500000021e+02
1.2500000009e+02
9.9999999924e+02
9.9999999850e+02
9.9999999610e+02
9.9999998973e+02
9.9999997344e+02
9.9999993276e+02
9.9999983378e+02
9.9999959911e+02
9.9999905724e+02
9.9999783945e+02
9.9999517742e+02
9.9998952136e+02
9.9997784905e+02
9.9995447146e+02
9.9990906866e+02
9.9982363563e+02
9.9966802692e+02
9.9939393057e+02
9.9892745040e+02
9.9816107094e+02
9.9694656384e+02
9.9509114772e+02
9.9235955438e+02
9.8848415578e+02
9.8318374927e+02
9.7618923437e+02
9.6727202802e+02
9.5626968938e+02
9.4310357802e+02
9.2778540367e+02
9.1041241371e+02
8.9115356915e+02
8.7023053615e+02
8.4789745553e+02
8.2442259145e+02
8.0007368135e+02
7.7510761054e+02
7.4976418381e+02
7.2426331375e+02
6.9880480842e+02
6.7357000059e+02
6.4872460703e+02
6.2442236469e+02
6.0080911223e+02
5.7802703973e+02
5.5621878819e+02
5.3553091165e+02
5.1611588692e+02
4.9813135979e+02
4.8173473455e+02
4.6707081834e+02
4.5425057348e+02
4.4332081491e+02
4.3422819434e+02
4.2678488796e+02
4.2064680986e+02
4.1532122196e+02
4.1018983431e+02
4.0458499473e+02
3.9788594547e+02
3.8963150466e+02
3.7962052275e+02
3.6796458021e+02
3.5506949128e+02
3.4154920609e+02
3.2810126632e+02
3.1538247224e+02
3.0391515499e+02
2.9403792649e+02
2.8590141611e+02
2.7950416333e+02
2.7475890066e+02
2.7155062283e+02
2.6966600500e+02
2.6838085621e+02
2.6566590053e+02
2.5778925566e+02
2.4087289847e+02
2.1457979573e+02
1.8432077188e+02
1.5812771486e+02
1.4075922450e+02
1.3161669754e+02
1.2756546426e+02
1.2595210752e+02
1.2534519342e+02
1.2512338878e+02
1.2504362631e+02
1.2501526744e+02
1.2500528637e+02
1.2500180963e+02
1.2500061191e+02
1.2500020421e+02
1.2500006721e+02
1.2500002180e+02
1.2500000697e+02
1.2500000219e+02
1.2500000068e+02
1.2500000021e+02
1.2500000009e+02
9.9999999924e+02
9.9999999850e+02
9.9999999610e+02
9.9999998973e+02
9.9999997344e+02
9.9999993276e+02
9.9999983378e+02
9.9999959911e+02
9.9999905724e+02
9.9999783945e+02
9.9999517742e+02
9.9998952136e+02
9.9997784905e+02
9.9995447146e+02
9.9990906866e+02
9.9982363563e+02
9.9966802692e+02
9.9939393057e+02
9.9892745040e+02
9.9816107094e+02
9.9694656384e+02
9.9509114772e+02
9.9235955438e+02
9.8848415578e+02
9.8318374927e+02
9.7618923437e+02
9.6727202802e+02
9.5626968938e+02
9.4310357802e+02
9.2778540367e+02
9.1041241371e+02
8.9115356915e+02
8.7023053615e+02
8.4789745553e+02
8.2442259145e+02
8.0007368135e+02
7.7510761054e+02
7.4976418381e+02
7.2426331375e+02
6.9880480842e+02
6.7357000059e+02
6.4872460703e+02
6.2442236469e+02
6.0080911223e+02
5.7802703973e+02
5.5621878819e+02
5.3553091165e+02
5.1611588692e+02
4.9813135979e+02
4.8173473455e+02
4.6707081834e+02
4.5425057348e+02
4.4332081491e+02
4.3422819434e+02
4.2678488796e+02
4.2064680986e+02
4.1532122196e+02
4.1018983431e+02
4.0458499473e+02
3.9788594547e+02
3.8963150466e+02
3.7962052275e+02
3.6796458021e+02
3.5506949128e+02
3.4154920609e+02
3.2810126632e+02
3.1538247224e+02
3.0391515499e+02
2.9403792649e+02
2.8590141611e+02
2.7950416333e+02
2.7475890066e+02
2.7155062283e+02
2.6966600500e+02
2.6838085621e+02
2.6566590053e+02
2.5778925566e+02
2.4087289847e+02
2.1457979573e+02
1.8432077188e+02
1.5812771486e+02
1.4075922450e+02
1.3161669754e+02
1.2756546426e+02
1.2595210752e+02
1.2534519342e+02
1.2512338878e+02
1.2504362631e+02
1.2501526744e+02
1.2500528637e+02
1.2500180963e+02
1.2500061191e+02
1.2500020421e+02
1.2500006721e+02
1.2500002180e+02
1.2500000697e+02
1.2500000219e+02
1.2500000068e+02
1.2500000021e+02
1.2500000009e+02
9.9999999924e+02
9.9999999850e+02
9.9999999610e+02
9.9999998973e+02
9.9999997344e+02
9.9999993276e+02
9.9999983378e+02
9.9999959911e+02
9.9999905724e+02
9.9999783945e+02
9.9999517742e+02
9.9998952136e+02
9.9997784905e+02
9.9995447146e+02
9.9990906866e+02
9.9982363563e+02
9.9966802692e+02
9.9939393057e+02
9.9892745040e+02
9.9816107094e+02
9.9694656384e+02
9.9509114772e+02
9.9235955438e+02
9.8848415578e+02
9.8318374927e+02
9.7618923437e+02
9.6727202802e+02
9.5626968938e+02
9.4310357802e+02
9.2778540367e+02
9.1041241371e+02
8.9115356915e+02
8.7023053615e+02
8.4789745553e+02
8.2442259145e+02
8.0007368135e+02
7.7510761054e+02
7.4976418381e+02
7.2426331375e+02
6.9880480842e+02
6.7357000059e+02
6.4872460703e+02
6.2442236469e+02
6.0080911223e+02
5.7802703973e+02
5.5621878819e+02
5.3553091165e+02
5.1611588692e+02
4.9813135979e+02
4.8173473455e+02
4.6707081834e+02
4.5425057348e+02
4.4332081491e+02
4.3422819434e+02
4.2678488796e+02
4.2064680986e+02
4.1532122196e+02
4.1018983431e+02
4.0458499473e+02
3.9788594547e+02
3.8963150466e+02
3.7962052275e+02
3.6796458021e+02
3.5506949128e+02
3.4154920609e+02
3.2810126632e+02
3.1538247224e+02
3.0391515499e+02
2.9403792649e+02
2.8590141611e+02
2.7950416333e+02
2.7475890066e+02
2.7155062283e+02
2.6966600500e+02
2.6838085621e+02
2.6566590053e+02
2.5778925566e+02
2.4087289847e+02
2.1457979573e+02
1.8432077188e+02
1.5812771486e+02
1.4075922450e+02
1.3161669754e+02
1.2756546426e+02
1.2595210752e+02
1.2534519342e+02
1.2512338878e+02
1.2504362631e+02
1.2501526744e+02
1.2500528637e+02
1.2500180963e+02
1.2500061191e+02
1.2500020421e+02
1.2500006721e+02
1.2500002180e+02
1.2500000697e+02
1.2500000219e+02
1.2500000068e+02
1.2500000021e+02
1.2500000009e+02
9.9999999924e+02
9.9999999850e+02
9.9999999610e+02
9.9999998973e+02
9.9999997344e+02
9.9999993276e+02
9.9999983378e+02
9.9999959911e+02
9.9999905724e+02
9.9999783945e+02
9.9999517742e+02
9.9998952136e+02
9.9997784905e+02
9.9995447146e+02
9.9990906866e+02
9.9982363563e+02
9.9966802692e+02
9.9939393057e+02
9.9892745040e+02
9.9816107094e+02
9.9694656384e+02
9.9509114772e+02
9.9235955438e+02
9.8848415578e+02
9.8318374927e+02
9.7618923437e+02
9.6727202802e+02
9.5626968938e+02
9.4310357802e+02
9.2778540367e+02
9.1041241371e+02
8.9115356915e+02
8.7023053615e+02
8.4789745553e+02
8.2442259145e+02
8.0007368135e+02
7.7510761054e+02
7.4976418381e+02
7.2426331375e+02
6.9880480842e+02
6.7357000059e+02
6.4872460703e+02
6.2442236469e+02
6.0080911223e+02
5.7802703973e+02
5.5621878819e+02
5.3553091165e+02
5.1611588692e+02
4.9813135979e+02
4.8173473455e+02
4.6707081834e+02
4.5425057348e+02
4.4332081491e+02
4.3422819434e+02
4.2678488796e+02
4.2064680986e+02
4.1532122196e+02
4.1018983431e+02
4.0458499473e+02
3.9788594547e+02
3.8963150466e+02
3.7962052275e+02
3.6796458021e+02
3.5506949128e+02
3.4154920609e+02
3.2810126632e+02
3.1538247224e+02
3.0391515499e+02
2.9403792649e+02
2.8590141611e+02
2.7950416333e+02
2.7475890066e+02
2.7155062283e+02
2.6966600500e+02
2.6838085621e+02
2.6566590053e+02
2.5778925566e+02
2.4087289847e+02
2.1457979573e+02
1.8432077188e+02
1.5812771486e+02
1.4075922450e+02
1.3161669754e+02
1.2756546426e+02
1.2595210752e+02
1.2534519342e+02
1.2512338878e+02
1.2504362631e+02
1.2501526744e+02
1.2500528637e+02
1.2500180963e+02
1.2500061191e+02
1.2500020421e+02
1.2500006721e+02
1.2500002180e+02
1.2500000697e+02
1.2500000219e+02
1.2500000068e+02
1.2500000021e+02
1.2500000009e+02
9.9999999924e+02
9.9999999850e+02
9.9999999610e+02
9.9999998973e+02
9.9999997344e+02
9.9999993276e+02
9.9999983378e+02
9.9999959911e+02
9.9999905724e+02
9.9999783945e+02
9.9999517742e+02
9.9998952136e+02
9.9997784905e+02
9.9995447146e+02
9.9990906866e+02
9.9982363563e+02
9.9966802692e+02
9.9939393057e+02
9.9892745040e+02
9.9816107094e+02
9.9694656384e+02
9.9509114772e+02
9.9235955438e+02
9.8848415578e+02
9.8318374927e+02
9.7618923437e+02
9.6727202802e+02
9.5626968938e+02
9.4310357802e+02
9.2778540367e+02
9.1041241371e+02
8.9115356915e+02
8.7023053615e+02
8.4789745553e+02
8.2442259145e+02
8.0007368135e+02
7.7510761054e+02
7.4976418381e+02
7.2426331375e+02
6.9880480842e+02
6.7357000059e+02
6.4872460703e+02
6.2442236469e+02
6.0080911223e+02
5.7802703973e+02
5.5621878819e+02
5.3553091165e+02
5.1611588692e+02
4.9813135979e+02
4.8173473455e+02
4.6707081834e+02
4.5425057348e+02
4.4332081491e+02
4.3422819434e+02
4.2678488796e+02
4.2064680986e+02
4.1532122196e+02
4.1018983431e+02
4.0458499473e+02
3.9788594547e+02
3.8963150466e+02
3.7962052275e+02
3.6796458021e+02
3.5506949128e+02
3.4154920609e+02
3.2810126632e+02
3.1538247224e+02
3.0391515499e+02
2.9403792649e+02
2.8590141611e+02
2.7950416333e+02
2.7475890066e+02
2.7155062283e+02
2.6966600500e+02
2.6838085621e+02
2.6566590053e+02
2.5778925566e+02
2.4087289847e+02
2.1457979573e+02
1.8432077188e+02
1.5812771486e+02
1.4075922450e+02
1.3161669754e+02
1.2756546426e+02
1.2595210752e+02
1.2534519342e+02
1.2512338878e+02
1.2504362631e+02
1.2501526744e+02
1.2500528637e+02
1.2500180963e+02
1.2500061191e+02
1.2500020421e+02
1.2500006721e+02
1.2500002180e+02
1.2500000697e+02
1.2500000219e+02
1.2500000068e+02
1.2500000021e+02
1.2500000009e+02
9.9999999924e+02
9.9999999850e+02
9.9999999610e+02
9.9999998973e+02
9.9999997344e+02
9.9999993276e+02
9.9999983378e+02
9.9999959911e+02
9.9999905724e+02
9.9999783945e+02
9.9999517742e+02
9.9998952136e+02
9.9997784905e+02
9.9995447146e+02
9.9990906866e+02
9.9982363563e+02
9.9966802692e+02
9.9939393057e+02
9.9892745040e+02
9.9816107094e+02
9.9694656384e+02
9.9509114772e+02
9.9235955438e+02
9.8848415578e+02
9.8318374927e+02
9.7618923437e+02
9.6727202802e+02
9.5626968938e+02
9.4310357802e+02
9.2778540367e+02
9.1041241371e+02
8.9115356915e+02
8.7023053615e+02
8.4789745553e+02
8.2442259145e+02
8.0007368135e+02
7.7510761054e+02
7.4976418381e+02
7.2426331375e+02
6.9880480842e+02
6.7357000059e+02
6.4872460703e+02
6.2442236469e+02
6.0080911223e+02
5.7802703973e+02
5.5621878819e+02
5.3553091165e+02
5.1611588692e+02
4.9813135979e+02
4.8173473455e+02
4.6707081834e+02
4.5425057348e+02
4.4332081491e+02
4.3422819434e+02
4.2678488796e+02
4.2064680986e+02
4.1532122196e+02
4.1018983431e+02
4.0458499473e+02
3.9788594547e+02
3.8963150466e+02
3.7962052275e+02
3.6796458021e+02
3.5506949128e+02
3.4154920609e+02
3.2810126632e+02
3.1538247224e+02
3.0391515499e+02
2.9403792649e+02
2.8590141611e+02
2.7950416333e+02
2.7475890066e+02
2.7155062283e+02
2.6966600500e+02
2.6838085621e+02
2.6566590053e+02
2.5778925566e+02
2.4087289847e+02
2.1457979573e+02
1.8432077188e+02
1.5812771486e+02
1.4075922450e+02
1.3161669754e+02
1.2756546426e+02
1.2595210752e+02
1.2534519342e+02
1.2512338878e+02
1.2504362631e+02
1.2501526744e+02
1.2500528637e+02
1.2500180963e+02
1.2500061191e+02
1.2500020421e+02
1.2500006721e+02
1.2500002180e+02
1.2500000697e+02
1.2500000219e+02
1.2500000068e+02
1.2500000021e+02
1.2500000009e+02

SCALARS molarDensity float
LOOKUP_TABLE default
1.2977624123e+05
1.2977624113e+05
1.2977624082e+05
1.2977623999e+05
1.2977623788e+05
1.2977623260e+05
1.2977621976e+05
1.2977618930e+05
1.2977611898e+05
1.2977596094e+05
1.2977561547e+05
1.2977488145e+05
1.2977336666e+05
1.2977033280e+05
1.2976444060e+05
1.2975335342e+05
1.2973315911e+05
1.2969758791e+05
1.2963704987e+05
1.2953759203e+05
1.2937997786e+05
1.2913918893e+05
1.2878469301e+05
1.2828175835e+05
1.2759389151e+05
1.2668616966e+05
1.2552892814e+05
1.2410108598e+05
1.2239243754e+05
1.2040450245e+05
1.1814990111e+05
1.1565056065e+05
1.1293524807e+05
1.1003694481e+05
1.0699046518e+05
1.0383055515e+05
1.0059055232e+05
9.7301577656e+04
9.3992170589e+04
9.0688261458e+04
8.7413382947e+04
8.4189041157e+04
8.1035187490e+04
7.7970748340e+04
7.5014176602e+04
7.2183983686e+04
6.9499188828e+04
6.6979579894e+04
6.4645615561e+04
6.2517723166e+04
6.0614695237e+04
5.8950932046e+04
5.7532509061e+04
5.6352502940e+04
5.5386538615e+04
5.4589961910e+04
5.3898827129e+04
5.3232894928e+04
5.2505519913e+04
5.1636142480e+04
5.0564912177e+04
4.9265724573e+04
4.7753060161e+04
4.6079583988e+04
4.4324972195e+04
4.2579749117e+04
4.0929151828e+04
3.9440966497e+04
3.8159136907e+04
3.7103211173e+04
3.6272999753e+04
3.5657177399e+04
3.5240819161e+04
3.4996240543e+04
3.4829458762e+04
3.4477122020e+04
3.3454920654e+04
3.1259579401e+04
2.7847359354e+04
2.3920456973e+04
2.0521220485e+04
1.8267203088e+04
1.7080720303e+04
1.6554966475e+04
1.6345591101e+04
1.6266828071e+04
1.6238043099e+04
1.6227691824e+04
1.6224011517e+04
1.6222716212e+04
1.6222265013e+04
1.6222109577e+04
1.6222056668e+04
1.6222038889e+04
1.6222032995e+04
1.6222031070e+04
1.6222030451e+04
1.6222030255e+04
1.6222030194e+04
1.6222030177e+04
1.2977624123e+05
1.2977624113e+05
1.2977624082e+05
1.2977623999e+05
1.2977623788e+05
1.2977623260e+05
1.2977621976e+05
1.2977618930e+05
1.2977611898e+05
1.2977596094e+05
1.2977561547e+05
1.2977488145e+05
1.2977336666e+05
1.2977033280e+05
1.2976444060e+05
1.2975335342e+05
1.2973315911e+05
1.2969758791e+05
1.2963704987e+05
1.2953759203e+05
1.2937997786e+05
1.2913918893e+05
1.2878469301e+05
1.2828175835e+05
1.2759389151e+05
1.2668616966e+05
1.2552892814e+05
1.2410108598e+05
1.2239243754e+05
1.2040450245e+05
1.1814990111e+05
1.1565056065e+05
1.1293524807e+05
1.1003694481e+05
1.0699046518e+05
1.0383055515e+05
1.0059055232e+05
9.7301577656e+04
9.3992170589e+04
9.0688261458e+04
8.7413382947e+04
8.4189041157e+04
8.1035187490e+04
7.7970748340e+04
7.5014176602e+04
7.2183983686e+04
6.9499188828e+04
6.6979579894e+04
6.4645615561e+04
6.2517723166e+04
6.0614695237e+04
5.8950932046e+04
5.7532509061e+04
5.6352502940e+04
5.5386538615e+04
5.4589961910e+04
5.3898827129e+04
5.3232894928e+04
5.2505519913e+04
5.1636142480e+04
5.0564912177e+04
4.9265724573e+04
4.7753060161e+04
4.6079583988e+04
4.4324972195e+04
4.2579749117e+04
4.0929151828e+04
3.9440966497e+04
3.8159136907e+04