# vtk DataFile Version 2.0
Blank
ASCII
DATASET STRUCTURED_GRID
DIMENSIONS 101 11 2
POINTS 2222 float
0.0000000000e+00 0.0000000000e+00 0.0000000000e+00
1.0000000000e-02 0.0000000000e+00 0.0000000000e+00
2.0000000000e-02 0.0000000000e+00 0.0000000000e+00
3.0000000000e-02 0.0000000000e+00 0.0000000000e+00
4.0000000000e-02 0.0000000000e+00 0.0000000000e+00
5.0000000000e-02 0.0000000000e+00 0.0000000000e+00
6.0000000000e-02 0.0000000000e+00 0.0000000000e+00
7.0000000000e-02 0.0000000000e+00 0.0000000000e+00
8.0000000000e-02 0.0000000000e+00 0.0000000000e+00
9.0000000000e-02 0.0000000000e+00 0.0000000000e+00
1.0000000000e-01 0.0000000000e+00 0.0000000000e+00
1.1000000000e-01 0.0000000000e+00 0.0000000000e+00
1.2000000000e-01 0.0000000000e+00 0.0000000000e+00
1.3000000000e-01 0.0000000000e+00 0.0000000000e+00
1.4000000000e-01 0.0000000000e+00 0.0000000000e+00
1.5000000000e-01 0.0000000000e+00 0.0000000000e+00
1.6000000000e-01 0.0000000000e+00 0.0000000000e+00
1.7000000000e-01 0.0000000000e+00 0.0000000000e+00
1.8000000000e-01 0.0000000000e+00 0.0000000000e+00
1.9000000000e-01 0.0000000000e+00 0.0000000000e+00
2.0000000000e-01 0.0000000000e+00 0.0000000000e+00
2.1000000000e-01 0.0000000000e+00 0.0000000000e+00
2.2000000000e-01 0.0000000000e+00 0.0000000000e+00
2.3000000000e-01 0.0000000000e+00 0.0000000000e+00
2.4000000000e-01 0.0000000000e+00 0.0000000000e+00
2.5000000000e-01 0.0000000000e+00 0.0000000000e+00
2.6000000000e-01 0.0000000000e+00 0.0000000000e+00
2.7000000000e-01 0.0000000000e+00 0.0000000000e+00
2.8000000000e-01 0.0000000000e+00 0.0000000000e+00
2.9000000000e-01 0.0000000000e+00 0.0000000000e+00
3.0000000000e-01 0.0000000000e+00 0.0000000000e+00
3.1000000000e-01 0.0000000000e+00 0.0000000000e+00
3.2000000000e-01 0.0000000000e+00 0.0000000000e+00
3.3000000000e-01 0.0000000000e+00 0.0000000000e+00
3.4000000000e-01 0.0000000000e+00 0.0000000000e+00
3.5000000000e-01 0.0000000000e+00 0.0000000000e+00
3.6000000000e-01 0.0000000000e+00 0.0000000000e+00
3.7000000000e-01 0.0000000000e+00 0.0000000000e+00
3.8000000000e-01 0.0000000000e+00 0.0000000000e+00
3.9000000000e-01 0.0000000000e+00 0.0000000000e+00
4.0000000000e-01 0.0000000000e+00 0.0000000000e+00
4.1000000000e-01 0.0000000000e+00 0.0000000000e+00
4.2000000000e-01 0.0000000000e+00 0.0000000000e+00
4.3000000000e-01 0.0000000000e+00 0.0000000000e+00
4.4000000000e-01 0.0000000000e+00 0.0000000000e+00
4.5000000000e-01 0.0000000000e+00 0.0000000000e+00
4.6000000000e-01 0.0000000000e+00 0.0000000000e+00
4.7000000000e-01 0.0000000000e+00 0.0000000000e+00
4.8000000000e-01 0.0000000000e+00 0.0000000000e+00
4.9000000000e-01 0.0000000000e+00 0.0000000000e+00
5.0000000000e-01 0.0000000000e+00 0.0000000000e+00
5.1000000000e-01 0.0000000000e+00 0.0000000000e+00
5.2000000000e-01 0.0000000000e+00 0.0000000000e+00
5.3000000000e-01 0.0000000000e+00 0.0000000000e+00
5.4000000000e-01 0.0000000000e+00 0.0000000000e+00
5.5000000000e-01 0.0000000000e+00 0.0000000000e+00
5.6000000000e-01 0.0000000000e+00 0.0000000000e+00
5.7000000000e-01 0.0000000000e+00 0.0000000000e+00
5.8000000000e-01 0.0000000000e+00 0.0000000000e+00
5.9000000000e-01 0.0000000000e+00 0.0000000000e+00
6.0000000000e-01 0.0000000000e+00 0.0000000000e+00
6.1000000000e-01 0.0000000000e+00 0.0000000000e+00
6.2000000000e-01 0.0000000000e+00 0.0000000000e+00
6.3000000000e-01 0.0000000000e+00 0.0000000000e+00
6.4000000000e-01 0.0000000000e+00 0.0000000000e+00
6.5000000000e-01 0.0000000000e+00 0.0000000000e+00
6.6000000000e-01 0.0000000000e+00 0.0000000000e+00
6.7000000000e-01 0.0000000000e+00 0.0000000000e+00
6.8000000000e-01 0.0000000000e+00 0.0000000000e+00
6.9000000000e-01 0.0000000000e+00 0.0000000000e+00
7.0000000000e-01 0.0000000000e+00 0.0000000000e+00
7.1000000000e-01 0.0000000000e+00 0.0000000000e+00
7.2000000000e-01 0.0000000000e+00 0.0000000000e+00
7.3000000000e-01 0.0000000000e+00 0.0000000000e+00
7.4000000000e-01 0.0000000000e+00 0.0000000000e+00
7.5000000000e-01 0.0000000000e+00 0.0000000000e+00
7.6000000000e-01 0.0000000000e+00 0.0000000000e+00
7.7000000000e-01 0.0000000000e+00 0.0000000000e+00
7.8000000000e-01 0.0000000000e+00 0.0000000000e+00
7.9000000000e-01 0.0000000000e+00 0.0000000000e+00
8.0000000000e-01 0.0000000000e+00 0.0000000000e+00
8.1000000000e-01 0.0000000000e+00 0.0000000000e+00
8.2000000000e-01 0.0000000000e+00 0.0000000000e+00
8.3000000000e-01 0.0000000000e+00 0.0000000000e+00
8.4000000000e-01 0.0000000000e+00 0.0000000000e+00
8.5000000000e-01 0.0000000000e+00 0.0000000000e+00
8.6000000000e-01 0.0000000000e+00 0.0000000000e+00
8.7000000000e-01 0.0000000000e+00 0.0000000000e+00
8.8000000000e-01 0.0000000000e+00 0.0000000000e+00
8.9000000000e-01 0.0000000000e+00 0.0000000000e+00
9.0000000000e-01 0.0000000000e+00 0.0000000000e+00
9.1000000000e-01 0.0000000000e+00 0.0000000000e+00
9.2000000000e-01 0.0000000000e+00 0.0000000000e+00
9.3000000000e-01 0.0000000000e+00 0.0000000000e+00
9.4000000000e-01 0.0000000000e+00 0.0000000000e+00
9.5000000000e-01 0.0000000000e+00 0.0000000000e+00
9.6000000000e-01 0.0000000000e+00 0.0000000000e+00
9.7000000000e-01 0.0000000000e+00 0.0000000000e+00
9.8000000000e-01 0.0000000000e+00 0.0000000000e+00
9.9000000000e-01 0.0000000000e+00 0.0000000000e+00
1.0000000000e+00 0.0000000000e+00 0.0000000000e+00
0.0000000000e+00 1.0000000000e-03 0.0000000000e+00
1.0000000000e-02 1.0000000000e-03 0.0000000000e+00
2.0000000000e-02 1.0000000000e-03 0.0000000000e+00
3.0000000000e-02 1.0000000000e-03 0.0000000000e+00
4.0000000000e-02 1.0000000000e-03 0.0000000000e+00
5.0000000000e-02 1.0000000000e-03 0.0000000000e+00
6.0000000000e-02 1.0000000000e-03 0.0000000000e+00
7.0000000000e-02 1.0000000000e-03 0.0000000000e+00
8.0000000000e-02 1.0000000000e-03 0.0000000000e+00
9.0000000000e-02 1.0000000000e-03 0.0000000000e+00
1.0000000000e-01 1.0000000000e-03 0.0000000000e+00
1.1000000000e-01 1.0000000000e-03 0.0000000000e+00
1.2000000000e-01 1.0000000000e-03 0.0000000000e+00
1.3000000000e-01 1.0000000000e-03 0.0000000000e+00
1.4000000000e-01 1.0000000000e-03 0.0000000000e+00
1.5000000000e-01 1.0000000000e-03 0.0000000000e+00
1.6000000000e-01 1.0000000000e-03 0.0000000000e+00
1.7000000000e-01 1.0000000000e-03 0.0000000000e+00
1.8000000000e-01 1.0000000000e-03 0.0000000000e+00
1.9000000000e-01 1.0000000000e-03 0.0000000000e+00
2.0000000000e-01 1.0000000000e-03 0.0000000000e+00
2.1000000000e-01 1.0000000000e-03 0.0000000000e+00
2.2000000000e-01 1.0000000000e-03 0.0000000000e+00
2.3000000000e-01 1.0000000000e-03 0.0000000000e+00
2.4000000000e-01 1.0000000000e-03 0.0000000000e+00
2.5000000000e-01 1.0000000000e-03 0.0000000000e+00
2.6000000000e-01 1.0000000000e-03 0.0000000000e+00
2.7000000000e-01 1.0000000000e-03 0.0000000000e+00
2.8000000000e-01 1.0000000000e-03 0.0000000000e+00
2.9000000000e-01 1.0000000000e-03 0.0000000000e+00
3.0000000000e-01 1.0000000000e-03 0.0000000000e+00
3.1000000000e-01 1.0000000000e-03 0.0000000000e+00
3.2000000000e-01 1.0000000000e-03 0.0000000000e+00
3.3000000000e-01 1.0000000000e-03 0.0000000000e+00
3.4000000000e-01 1.0000000000e-03 0.0000000000e+00
3.5000000000e-01 1.0000000000e-03 0.0000000000e+00
3.6000000000e-01 1.0000000000e-03 0.0000000000e+00
3.7000000000e-01 1.0000000000e-03 0.0000000000e+00
3.8000000000e-01 1.0000000000e-03 0.0000000000e+00
3.9000000000e-01 1.0000000000e-03 0.0000000000e+00
4.0000000000e-01 1.0000000000e-03 0.0000000000e+00
4.1000000000e-01 1.0000000000e-03 0.0000000000e+00
4.2000000000e-01 1.0000000000e-03 0.0000000000e+00
4.3000000000e-01 1.0000000000e-03 0.0000000000e+00
4.4000000000e-01 1.0000000000e-03 0.0000000000e+00
4.5000000000e-01 1.0000000000e-03 0.0000000000e+00
4.6000000000e-01 1.0000000000e-03 0.0000000000e+00
4.7000000000e-01 1.0000000000e-03 0.0000000000e+00
4.8000000000e-01 1.0000000000e-03 0.0000000000e+00
4.9000000000e-01 1.0000000000e-03 0.0000000000e+00
5.0000000000e-01 1.0000000000e-03 0.0000000000e+00
5.1000000000e-01 1.0000000000e-03 0.0000000000e+00
5.2000000000e-01 1.0000000000e-03 0.0000000000e+00
5.3000000000e-01 1.0000000000e-03 0.0000000000e+00
5.4000000000e-01 1.0000000000e-03 0.0000000000e+00
5.5000000000e-01 1.0000000000e-03 0.0000000000e+00
5.6000000000e-01 1.0000000000e-03 0.0000000000e+00
5.7000000000e-01 1.0000000000e-03 0.0000000000e+00
5.8000000000e-01 1.0000000000e-03 0.0000000000e+00
5.9000000000e-01 1.0000000000e-03 0.0000000000e+00
6.0000000000e-01 1.0000000000e-03 0.0000000000e+00
6.1000000000e-01 1.0000000000e-03 0.0000000000e+00
6.2000000000e-01 1.0000000000e-03 0.0000000000e+00
6.3000000000e-01 1.0000000000e-03 0.0000000000e+00
6.4000000000e-01 1.0000000000e-03 0.0000000000e+00
6.5000000000e-01 1.0000000000e-03 0.0000000000e+00
6.6000000000e-01 1.0000000000e-03 0.0000000000e+00
6.7000000000e-01 1.0000000000e-03 0.0000000000e+00
6.8000000000e-01 1.0000000000e-03 0.0000000000e+00
6.9000000000e-01 1.0000000000e-03 0.0000000000e+00
7.0000000000e-01 1.0000000000e-03 0.0000000000e+00
7.1000000000e-01 1.0000000000e-03 0.0000000000e+00
7.2000000000e-01 1.0000000000e-03 0.0000000000e+00
7.3000000000e-01 1.0000000000e-03 0.0000000000e+00
7.4000000000e-01 1.0000000000e-03 0.0000000000e+00
7.5000000000e-01 1.0000000000e-03 0.0000000000e+00
7.6000000000e-01 1.0000000000e-03 0.0000000000e+00
7.7000000000e-01 1.0000000000e-03 0.0000000000e+00
7.8000000000e-01 1.0000000000e-03 0.0000000000e+00
7.9000000000e-01 1.0000000000e-03 0.0000000000e+00
8.0000000000e-01 1.0000000000e-03 0.0000000000e+00
8.1000000000e-01 1.0000000000e-03 0.0000000000e+00
8.2000000000e-01 1.0000000000e-03 0.0000000000e+00
8.3000000000e-01 1.0000000000e-03 0.0000000000e+00
8.4000000000e-01 1.0000000000e-03 0.0000000000e+00
8.5000000000e-01 1.0000000000e-03 0.0000000000e+00
8.6000000000e-01 1.0000000000e-03 0.0000000000e+00
8.7000000000e-01 1.0000000000e-03 0.0000000000e+00
8.8000000000e-01 1.0000000000e-03 0.0000000000e+00
8.9000000000e-01 1.0000000000e-03 0.0000000000e+00
9.0000000000e-01 1.0000000000e-03 0.0000000000e+00
9.1000000000e-01 1.0000000000e-03 0.0000000000e+00
9.2000000000e-01 1.0000000000e-03 0.0000000000e+00
[...]
CELL_DATA 1000

SCALARS massDensity float
LOOKUP_TABLE default
9.9999999996e+02
9.9999999996e+02
9.9999999996e+02
9.9999999995e+02
9.9999999994e+02
9.9999999991e+02
9.9999999981e+02
9.9999999950e+02
9.9999999856e+02
9.9999999577e+02
9.9999998773e+02
9.9999996522e+02
9.9999990408e+02
9.9999974290e+02
9.9999933101e+02
9.9999831130e+02
9.9999586794e+02
9.9999020667e+02
9.9997753535e+02
9.9995016712e+02
9.9989319140e+02
9.9977900277e+02
9.9955896760e+02
9.9915184020e+02
9.9842944037e+02
9.9720168336e+02
9.9520506976e+02
9.9210040553e+02
9.8748557319e+02
9.8092650549e+02
9.7200414428e+02
9.6036890583e+02
9.4579005821e+02
9.2818791524e+02
9.0764196938e+02
8.8437553048e+02
8.5872366544e+02
8.3109397487e+02
8.0192888342e+02
7.7167512574e+02
7.4076275900e+02
7.0959349374e+02
6.7853675499e+02
6.4793145349e+02
6.1809154811e+02
5.8931371421e+02
5.6188548082e+02
5.3609180763e+02
5.1221704648e+02
4.9053754717e+02
4.7129833131e+02
4.5466689352e+02
4.4066137947e+02
4.2906193699e+02
4.1934448296e+02
4.1067985802e+02
4.0203411482e+02
3.9241726946e+02
3.8115156363e+02
3.6806654219e+02
3.5353073000e+02
3.3831388149e+02
3.2335422045e+02
3.0953182606e+02
2.9752322922e+02
2.8775964507e+02
2.8043708881e+02
2.7541260297e+02
2.7173355954e+02
2.6683495813e+02
2.5645952836e+02
2.3683216645e+02
2.0859505338e+02
1.7816437842e+02
1.5342739700e+02
1.3797769202e+02
1.3026040725e+02
1.2697927728e+02
1.2571386949e+02
1.2525101014e+02
1.2508664319e+02
1.2502941987e+02
1.2500982701e+02
1.2500322682e+02
1.2500104068e+02
1.2500032937e+02
1.2500010223e+02
1.2500003110e+02
1.2500000927e+02
1.2500000271e+02
1.2500000078e+02
1.2500000022e+02
1.2500000006e+02
1.2500000002e+02
1.2500000001e+02
1.2500000001e+02
1.2500000001e+02
1.2500000000e+02
1.2500000000e+02
1.2500000000e+02
9.9999999996e+02
9.9999999996e+02
9.9999999996e+02
9.9999999995e+02
9.9999999994e+02
9.9999999991e+02
9.9999999981e+02
9.9999999950e+02
9.9999999856e+02
9.9999999577e+02
9.9999998773e+02
9.9999996522e+02
9.9999990408e+02
9.9999974290e+02
9.9999933101e+02
9.9999831130e+02
9.9999586794e+02
9.9999020667e+02
9.9997753535e+02
9.9995016712e+02
9.9989319140e+02
9.9977900277e+02
9.9955896760e+02
9.9915184020e+02
9.9842944037e+02
9.9720168336e+02
9.9520506976e+02
9.9210040553e+02
9.8748557319e+02
9.8092650549e+02
9.7200414428e+02
9.6036890583e+02
9.4579005821e+02
9.2818791524e+02
9.0764196938e+02
8.8437553048e+02
8.5872366544e+02
8.3109397487e+02
8.0192888342e+02
7.7167512574e+02
7.4076275900e+02
7.0959349374e+02
6.7853675499e+02
6.4793145349e+02
6.1809154811e+02
5.8931371421e+02
5.6188548082e+02
5.3609180763e+02
5.1221704648e+02
4.9053754717e+02
4.7129833131e+02
4.5466689352e+02
4.4066137947e+02
4.2906193699e+02
4.1934448296e+02
4.1067985802e+02
4.0203411482e+02
3.9241726946e+02
3.8115156363e+02
3.6806654219e+02
3.5353073000e+02
3.3831388149e+02
3.2335422045e+02
3.0953182606e+02
2.9752322922e+02
2.8775964507e+02
2.8043708881e+02
2.7541260297e+02
2.7173355954e+02
2.6683495813e+02
2.5645952836e+02
2.3683216645e+02
2.0859505338e+02
1.7816437842e+02
1.5342739700e+02
1.3797769202e+02
1.3026040725e+02
1.2697927728e+02
1.2571386949e+02
1.2525101014e+02
1.2508664319e+02
1.2502941987e+02
1.2500982701e+02
1.2500322682e+02
1.2500104068e+02
1.2500032937e+02
1.2500010223e+02
1.2500003110e+02
1.2500000927e+02
1.2500000271e+02
1.2500000078e+02
1.2500000022e+02
1.2500000006e+02
1.2500000002e+02
1.2500000001e+02
1.2500000001e+02
1.2500000001e+02
1.2500000000e+02
1.2500000000e+02
1.2500000000e+02
9.9999999996e+02
9.9999999996e+02
9.9999999996e+02
9.9999999995e+02
9.9999999994e+02
9.9999999991e+02
9.9999999981e+02
9.9999999950e+02
9.9999999856e+02
9.9999999577e+02
9.9999998773e+02
9.9999996522e+02
9.9999990408e+02
9.9999974290e+02
9.9999933101e+02
9.9999831130e+02
9.9999586794e+02
9.9999020667e+02
9.9997753535e+02
9.9995016712e+02
9.9989319140e+02
9.9977900277e+02
9.9955896760e+02
9.9915184020e+02
9.9842944037e+02
9.9720168336e+02
9.9520506976e+02
9.9210040553e+02
9.8748557319e+02
9.8092650549e+02
9.7200414428e+02
9.6036890583e+02
9.4579005821e+02
9.2818791524e+02
9.0764196938e+02
8.8437553048e+02
8.5872366544e+02
8.3109397487e+02
8.0192888342e+02
7.7167512574e+02
7.4076275900e+02
7.0959349374e+02
6.7853675499e+02
6.4793145349e+02
6.1809154811e+02
5.8931371421e+02
5.6188548082e+02
5.3609180763e+02
5.1221704648e+02
4.9053754717e+02
4.7129833131e+02
4.5466689352e+02
4.4066137947e+02
4.2906193699e+02
4.1934448296e+02
4.1067985802e+02
4.0203411482e+02
3.9241726946e+02
3.8115156363e+02
3.6806654219e+02
3.5353073000e+02
3.3831388149e+02
3.2335422045e+02
3.0953182606e+02
2.9752322922e+02
2.8775964507e+02
2.8043708881e+02
2.7541260297e+02
2.7173355954e+02
2.6683495813e+02
2.5645952836e+02
2.3683216645e+02
2.0859505338e+02
1.7816437842e+02
1.5342739700e+02
1.3797769202e+02
1.3026040725e+02
1.2697927728e+02
1.2571386949e+02
1.2525101014e+02
1.2508664319e+02
1.2502941987e+02
1.2500982701e+02
1.2500322682e+02
1.2500104068e+02
1.2500032937e+02
1.2500010223e+02
1.2500003110e+02
1.2500000927e+02
1.2500000271e+02
1.2500000078e+02
1.2500000022e+02
1.2500000006e+02
1.2500000002e+02
1.2500000001e+02
1.2500000001e+02
1.2500000001e+02
1.2500000000e+02
1.2500000000e+02
1.2500000000e+02
9.9999999996e+02
9.9999999996e+02
9.9999999996e+02
9.9999999995e+02
9.9999999994e+02
9.9999999991e+02
9.9999999981e+02
9.9999999950e+02
9.9999999856e+02
9.9999999577e+02
9.9999998773e+02
9.9999996522e+02
9.9999990408e+02
9.9999974290e+02
9.9999933101e+02
9.9999831130e+02
9.9999586794e+02
9.9999020667e+02
9.9997753535e+02
9.9995016712e+02
9.9989319140e+02
9.9977900277e+02
9.9955896760e+02
9.9915184020e+02
9.9842944037e+02
9.9720168336e+02
9.9520506976e+02
9.9210040553e+02
9.8748557319e+02
9.8092650549e+02
9.7200414428e+02
9.6036890583e+02
9.4579005821e+02
9.2818791524e+02
9.0764196938e+02
8.8437553048e+02
8.5872366544e+02
8.3109397487e+02
8.0192888342e+02
7.7167512574e+02
7.4076275900e+02
7.0959349374e+02
6.7853675499e+02
6.4793145349e+02
6.1809154811e+02
5.8931371421e+02
5.6188548082e+02
5.3609180763e+02
5.1221704648e+02
4.9053754717e+02
4.7129833131e+02
4.5466689352e+02
4.4066137947e+02
4.2906193699e+02
4.1934448296e+02
4.1067985802e+02
4.0203411482e+02
3.9241726946e+02
3.8115156363e+02
3.6806654219e+02
3.5353073000e+02
3.3831388149e+02
3.2335422045e+02
3.0953182606e+02
2.9752322922e+02
2.8775964507e+02
2.8043708881e+02
2.7541260297e+02
2.7173355954e+02
2.6683495813e+02
2.5645952836e+02
2.3683216645e+02
2.0859505338e+02
1.7816437842e+02
1.5342739700e+02
1.3797769202e+02
1.3026040725e+02
1.2697927728e+02
1.2571386949e+02
1.2525101014e+02
1.2508664319e+02
1.2502941987e+02
1.2500982701e+02
1.2500322682e+02
1.2500104068e+02
1.2500032937e+02
1.2500010223e+02
1.2500003110e+02
1.2500000927e+02
1.2500000271e+02
1.2500000078e+02
1.2500000022e+02
1.2500000006e+02
1.2500000002e+02
1.2500000001e+02
1.2500000001e+02
1.2500000001e+02
1.2500000000e+02
1.2500000000e+02
1.2500000000e+02
9.9999999996e+02
9.9999999996e+02
9.9999999996e+02
9.9999999995e+02
9.9999999994e+02
9.9999999991e+02
9.9999999981e+02
9.9999999950e+02
9.9999999856e+02
9.9999999577e+02
9.9999998773e+02
9.9999996522e+02
9.9999990408e+02
9.9999974290e+02
9.9999933101e+02
9.9999831130e+02
9.9999586794e+02
9.9999020667e+02
9.9997753535e+02
9.9995016712e+02
9.9989319140e+02
9.9977900277e+02
9.9955896760e+02
9.9915184020e+02
9.9842944037e+02
9.9720168336e+02
9.9520506976e+02
9.9210040553e+02
9.8748557319e+02
9.8092650549e+02
9.7200414428e+02
9.6036890583e+02
9.4579005821e+02
9.2818791524e+02
9.0764196938e+02
8.8437553048e+02
8.5872366544e+02
8.3109397487e+02
8.0192888342e+02
7.7167512574e+02
7.4076275900e+02
7.0959349374e+02
6.7853675499e+02
6.4793145349e+02
6.1809154811e+02
5.8931371421e+02
5.6188548082e+02
5.3609180763e+02
5.1221704648e+02
4.9053754717e+02
4.7129833131e+02
4.5466689352e+02
4.4066137947e+02
4.2906193699e+02
4.1934448296e+02
4.1067985802e+02
4.0203411482e+02
3.9241726946e+02
3.8115156363e+02
3.6806654219e+02
3.5353073000e+02
3.3831388149e+02
3.2335422045e+02
3.0953182606e+02
2.9752322922e+02
2.8775964507e+02
2.8043708881e+02
2.7541260297e+02
2.7173355954e+02
2.6683495813e+02
2.5645952836e+02
2.3683216645e+02
2.0859505338e+02
1.7816437842e+02
1.5342739700e+02
1.3797769202e+02
1.3026040725e+02
1.2697927728e+02
1.2571386949e+02
1.2525101014e+02
1.2508664319e+02
1.2502941987e+02
1.2500982701e+02
1.2500322682e+02
1.2500104068e+02
1.2500032937e+02
1.2500010223e+02
1.2500003110e+02
1.2500000927e+02
1.2500000271e+02
1.2500000078e+02
1.2500000022e+02
1.2500000006e+02
1.2500000002e+02
1.2500000001e+02
1.2500000001e+02
1.2500000001e+02
1.2500000000e+02
1.2500000000e+02
1.2500000000e+02
9.9999999996e+02
9.9999999996e+02
9.9999999996e+02
9.9999999995e+02
9.9999999994e+02
9.9999999991e+02
9.9999999981e+02
9.9999999950e+02
9.9999999856e+02
9.9999999577e+02
9.9999998773e+02
9.9999996522e+02
9.9999990408e+02
9.9999974290e+02
9.9999933101e+02
9.9999831130e+02
9.9999586794e+02
9.9999020667e+02
9.9997753535e+02
9.9995016712e+02
9.9989319140e+02
9.9977900277e+02
9.9955896760e+02
9.9915184020e+02
9.9842944037e+02
9.9720168336e+02
9.9520506976e+02
9.9210040553e+02
9.8748557319e+02
9.8092650549e+02
9.7200414428e+02
9.6036890583e+02
9.4579005821e+02
9.2818791524e+02
9.0764196938e+02
8.8437553048e+02
8.5872366544e+02
8.3109397487e+02
8.0192888342e+02
7.7167512574e+02
7.4076275900e+02
7.0959349374e+02
6.7853675499e+02
6.4793145349e+02
6.1809154811e+02
5.8931371421e+02
5.6188548082e+02
5.3609180763e+02
5.1221704648e+02
4.9053754717e+02
4.7129833131e+02
4.5466689352e+02
4.4066137947e+02
4.2906193699e+02
4.1934448296e+02
4.1067985802e+02
4.0203411482e+02
3.9241726946e+02
3.8115156363e+02
3.6806654219e+02
3.5353073000e+02
3.3831388149e+02
3.2335422045e+02
3.0953182606e+02
2.9752322922e+02
2.8775964507e+02
2.8043708881e+02
2.7541260297e+02
2.7173355954e+02
2.6683495813e+02
2.5645952836e+02
2.3683216645e+02
2.0859505338e+02
1.7816437842e+02
1.5342739700e+02
1.3797769202e+02
1.3026040725e+02
1.2697927728e+02
1.2571386949e+02
1.2525101014e+02
1.2508664319e+02
1.2502941987e+02
1.2500982701e+02
1.2500322682e+02
1.2500104068e+02
1.2500032937e+02
1.2500010223e+02
1.2500003110e+02
1.2500000927e+02
1.2500000271e+02
1.2500000078e+02
1.2500000022e+02
1.2500000006e+02
1.2500000002e+02
1.2500000001e+02
1.2500000001e+02
1.2500000001e+02
1.2500000000e+02
1.2500000000e+02
1.2500000000e+02
9.9999999996e+02
9.9999999996e+02
9.9999999996e+02
9.9999999995e+02
9.9999999994e+02
9.9999999991e+02
9.9999999981e+02
9.9999999950e+02
9.9999999856e+02
9.9999999577e+02
9.9999998773e+02
9.9999996522e+02
9.9999990408e+02
9.9999974290e+02
9.9999933101e+02
9.9999831130e+02
9.9999586794e+02
9.9999020667e+02
9.9997753535e+02
9.9995016712e+02
9.9989319140e+02
9.9977900277e+02
9.9955896760e+02
9.9915184020e+02
9.9842944037e+02
9.9720168336e+02
9.9520506976e+02
9.9210040553e+02
9.8748557319e+02
9.8092650549e+02
9.7200414428e+02
9.6036890583e+02
9.4579005821e+02
9.2818791524e+02
9.0764196938e+02
8.8437553048e+02
8.5872366544e+02
8.3109397487e+02
8.0192888342e+02
7.7167512574e+02
7.4076275900e+02
7.0959349374e+02
6.7853675499e+02
6.4793145349e+02
6.1809154811e+02
5.8931371421e+02
5.6188548082e+02
5.3609180763e+02
5.1221704648e+02
4.9053754717e+02
4.7129833131e+02
4.5466689352e+02
4.4066137947e+02
4.2906193699e+02
4.1934448296e+02
4.1067985802e+02
4.0203411482e+02
3.9241726946e+02
3.8115156363e+02
3.6806654219e+02
3.5353073000e+02
3.3831388149e+02
3.2335422045e+02
3.0953182606e+02
2.9752322922e+02
2.8775964507e+02
2.8043708881e+02
2.7541260297e+02
2.7173355954e+02
2.6683495813e+02
2.5645952836e+02
2.3683216645e+02
2.0859505338e+02
1.7816437842e+02
1.5342739700e+02
1.3797769202e+02
1.3026040725e+02
1.2697927728e+02
1.2571386949e+02
1.2525101014e+02
1.2508664319e+02
1.2502941987e+02
1.2500982701e+02
1.2500322682e+02
1.2500104068e+02
1.2500032937e+02
1.2500010223e+02
1.2500003110e+02
1.2500000927e+02
1.2500000271e+02
1.2500000078e+02
1.2500000022e+02
1.2500000006e+02
1.2500000002e+02
1.2500000001e+02
1.2500000001e+02
1.2500000001e+02
1.2500000000e+02
1.2500000000e+02
1.2500000000e+02
9.9999999996e+02
9.9999999996e+02
9.9999999996e+02
9.9999999995e+02
9.9999999994e+02
9.9999999991e+02
9.9999999981e+02
9.9999999950e+02
9.9999999856e+02
9.9999999577e+02
9.9999998773e+02
9.9999996522e+02
9.9999990408e+02
9.9999974290e+02
9.9999933101e+02
9.9999831130e+02
9.9999586794e+02
9.9999020667e+02
9.9997753535e+02
9.9995016712e+02
9.9989319140e+02
9.9977900277e+02
9.9955896760e+02
9.9915184020e+02
9.9842944037e+02
9.9720168336e+02
9.9520506976e+02
9.9210040553e+02
9.8748557319e+02
9.8092650549e+02
9.7200414428e+02
9.6036890583e+02
9.4579005821e+02
9.2818791524e+02
9.0764196938e+02
8.8437553048e+02
8.5872366544e+02
8.3109397487e+02
8.0192888342e+02
7.7167512574e+02
7.4076275900e+02
7.0959349374e+02
6.7853675499e+02
6.4793145349e+02
6.1809154811e+02
5.8931371421e+02
5.6188548082e+02
5.3609180763e+02
5.1221704648e+02
4.9053754717e+02
4.7129833131e+02
4.5466689352e+02
4.4066137947e+02
4.2906193699e+02
4.1934448296e+02
4.1067985802e+02
4.0203411482e+02
3.9241726946e+02
3.8115156363e+02
3.6806654219e+02
3.5353073000e+02
3.3831388149e+02
3.2335422045e+02
3.0953182606e+02
2.9752322922e+02
2.8775964507e+02
2.8043708881e+02
2.7541260297e+02
2.7173355954e+02
2.6683495813e+02
2.5645952836e+02
2.3683216645e+02
2.0859505338e+02
1.7816437842e+02
1.5342739700e+02
1.3797769202e+02
1.3026040725e+02
1.2697927728e+02
1.2571386949e+02
1.2525101014e+02
1.2508664319e+02
1.2502941987e+02
1.2500982701e+02
1.2500322682e+02
1.2500104068e+02
1.2500032937e+02
1.2500010223e+02
1.2500003110e+02
1.2500000927e+02
1.2500000271e+02
1.2500000078e+02
1.2500000022e+02
1.2500000006e+02
1.2500000002e+02
1.2500000001e+02
1.2500000001e+02
1.2500000001e+02
1.2500000000e+02
1.2500000000e+02
1.2500000000e+02
9.9999999996e+02
9.9999999996e+02
9.9999999996e+02
9.9999999995e+02
9.9999999994e+02
9.9999999991e+02
9.9999999981e+02
9.9999999950e+02
9.9999999856e+02
9.9999999577e+02
9.9999998773e+02
9.9999996522e+02
9.9999990408e+02
9.9999974290e+02
9.9999933101e+02
9.9999831130e+02
9.9999586794e+02
9.9999020667e+02
9.9997753535e+02
9.9995016712e+02
9.9989319140e+02
9.9977900277e+02
9.9955896760e+02
9.9915184020e+02
9.9842944037e+02
9.9720168336e+02
9.9520506976e+02
9.9210040553e+02
9.8748557319e+02
9.8092650549e+02
9.7200414428e+02
9.6036890583e+02
9.4579005821e+02
9.2818791524e+02
9.0764196938e+02
8.8437553048e+02
8.5872366544e+02
8.3109397487e+02
8.0192888342e+02
7.7167512574e+02
7.4076275900e+02
7.0959349374e+02
6.7853675499e+02
6.4793145349e+02
6.1809154811e+02
5.8931371421e+02
5.6188548082e+02
5.3609180763e+02
5.1221704648e+02
4.9053754717e+02
4.7129833131e+02
4.5466689352e+02
4.4066137947e+02
4.2906193699e+02
4.1934448296e+02
4.1067985802e+02
4.0203411482e+02
3.9241726946e+02
3.8115156363e+02
3.6806654219e+02
3.5353073000e+02
3.3831388149e+02
3.2335422045e+02
3.0953182606e+02
2.9752322922e+02
2.8775964507e+02
2.8043708881e+02
2.7541260297e+02
2.7173355954e+02
2.6683495813e+02
2.5645952836e+02
2.3683216645e+02
2.0859505338e+02
1.7816437842e+02
1.5342739700e+02
1.3797769202e+02
1.3026040725e+02
1.2697927728e+02
1.2571386949e+02
1.2525101014e+02
1.2508664319e+02
1.2502941987e+02
1.2500982701e+02
1.2500322682e+02
1.2500104068e+02
1.2500032937e+02
1.2500010223e+02
1.2500003110e+02
1.2500000927e+02
1.2500000271e+02
1.2500000078e+02
1.2500000022e+02
1.2500000006e+02
1.2500000002e+02
1.2500000001e+02
1.2500000001e+02
1.2500000001e+02
1.2500000000e+02
1.2500000000e+02
1.2500000000e+02
9.9999999996e+02
9.9999999996e+02
9.9999999996e+02
9.9999999995e+02
9.9999999994e+02
9.9999999991e+02
9.9999999981e+02
9.9999999950e+02
9.9999999856e+02
9.9999999577e+02
9.9999998773e+02
9.9999996522e+02
9.9999990408e+02
9.9999974290e+02
9.9999933101e+02
9.9999831130e+02
9.9999586794e+02
9.9999020667e+02
9.9997753535e+02
9.9995016712e+02
9.9989319140e+02
9.9977900277e+02
9.9955896760e+02
9.9915184020e+02
9.9842944037e+02
9.9720168336e+02
9.9520506976e+02
9.9210040553e+02
9.8748557319e+02
9.8092650549e+02
9.7200414428e+02
9.6036890583e+02
9.4579005821e+02
9.2818791524e+02
9.0764196938e+02
8.8437553048e+02
8.5872366544e+02
8.3109397487e+02
8.0192888342e+02
7.7167512574e+02
7.4076275900e+02
7.0959349374e+02
6.7853675499e+02
6.4793145349e+02
6.1809154811e+02
5.8931371421e+02
5.6188548082e+02
5.3609180763e+02
5.1221704648e+02
4.9053754717e+02
4.7129833131e+02
4.5466689352e+02
4.4066137947e+02
4.2906193699e+02
4.1934448296e+02
4.1067985802e+02
4.0203411482e+02
3.9241726946e+02
3.8115156363e+02
3.6806654219e+02
3.5353073000e+02
3.3831388149e+02
3.2335422045e+02
3.0953182606e+02
2.9752322922e+02
2.8775964507e+02
2.8043708881e+02
2.7541260297e+02
2.7173355954e+02
2.6683495813e+02
2.5645952836e+02
2.3683216645e+02
2.0859505338e+02
1.7816437842e+02
1.5342739700e+02
1.3797769202e+02
1.3026040725e+02
1.2697927728e+02
1.2571386949e+02
1.2525101014e+02
1.2508664319e+02
1.2502941987e+02
1.2500982701e+02
1.2500322682e+02
1.2500104068e+02
1.2500032937e+02
1.2500010223e+02
1.2500003110e+02
1.2500000927e+02
1.2500000271e+02
1.2500000078e+02
1.2500000022e+02
1.2500000006e+02
1.2500000002e+02
1.2500000001e+02
1.2500000001e+02
1.2500000001e+02
1.2500000000e+02
1.2500000000e+02
1.2500000000e+02

SCALARS molarDensity float
LOOKUP_TABLE default
1.2977624132e+05
1.2977624132e+05
1.2977624132e+05
1.2977624132e+05
1.2977624132e+05
1.2977624132e+05
1.2977624130e+05
1.2977624126e+05
1.2977624114e+05
1.2977624078e+05
1.2977623973e+05
1.2977623681e+05
1.2977622888e+05
1.2977620796e+05
1.2977615451e+05
1.2977602217e+05
1.2977570508e+05
1.2977497039e+05
1.2977332595e+05
1.2976977420e+05
1.2976238011e+05
1.2974756114e+05
1.2971900580e+05
1.2966617034e+05
1.2957242000e+05
1.2941308631e+05
1.2915397330e+05
1.2875106165e+05
1.2815216605e+05
1.2730095490e+05
1.2614304440e+05
1.2463306689e+05
1.2274107884e+05
1.2045673889e+05
1.1779036326e+05
1.1477093227e+05
1.1144192964e+05
1.0785625225e+05
1.0407131630e+05
1.0014509734e+05
9.6133406578e+04
9.2088376488e+04
8.8057949665e+04
8.4086108672e+04
8.0213597910e+04
7.6478918793e+04
7.2919385757e+04
6.9571979801e+04
6.6473603036e+04
6.3660119102e+04
6.1163325981e+04
5.9004960497e+04
5.7187377526e+04
5.5682045479e+04
5.4420950819e+04
5.3296488362e+04
5.2174476306e+04
5.0926438262e+04
4.9464417303e+04
4.7766292404e+04
4.5879889333e+04
4.3905103928e+04
4.1963695347e+04
4.0169876957e+04
3.8611446396e+04
3.7344365143e+04
3.6394071315e+04
3.5742012427e+04
3.5264559999e+04
3.4628837920e+04
3.3282353644e+04
3.0735188387e+04
2.7070681987e+04
2.3121503370e+04
1.9911230899e+04
1.7906226257e+04
1.6904706046e+04
1.6478893332e+04
1.6314673465e+04
1.6254605318e+04
1.6233274394e+04
1.6225848166e+04
1.6223305479e+04
1.6222448930e+04
1.6222165222e+04
1.6222072911e+04
1.6222043433e+04
1.6222034201e+04
1.6222031369e+04
1.6222030517e+04
1.6222030267e+04
1.6222030194e+04
1.6222030174e+04
1.6222030169e+04
1.6222030167e+04
1.6222030167e+04
1.6222030167e+04
1.6222030166e+04
1.6222030166e+04
1.6222030166e+04
1.2977624132e+05
1.2977624132e+05
1.2977624132e+05
1.2977624132e+05
1.2977624132e+05
1.2977624132e+05
1.2977624130e+05
1.2977624126e+05
1.2977624114e+05
1.2977624078e+05
1.2977623973e+05
1.2977623681e+05
1.2977622888e+05
1.2977620796e+05
1.2977615451e+05
1.2977602217e+05
1.2977570508e+05
1.2977497039e+05
1.2977332595e+05
1.2976977420e+05
1.2976238011e+05
1.2974756114e+05
1.2971900580e+05
1.2966617034e+05
1.2957242000e+05
1.2941308631e+05
1.2915397330e+05
1.2875106165e+05
1.2815216605e+05
1.2730095490e+05
1.2614304440e+05
1.2463306689e+05
1.2274107884e+05
1.2045673889e+05
1.1779036326e+05
1.1477093227e+05
1.1144192964e+05
1.0785625225e+05
1.0407131630e+05
1.0014509734e+05
9.6133406578e+04
9.2088376488e+04
8.8057949665e+04
8.4086108672e+04
8.0213597910e+04
7.6478918793e+04
7.2919385757e+04
6.9571979801e+04
6.6473603036e+04
6.3660119102e+04
6.1163325981e+04
5.9004960497e+04
5.7187377526e+04
5.5682045479e+04
5.4420950819e+04
5.3296488362e+04
5.2174476306e+04
5.0926438262e+04
4.9464417303e+04
4.7766292404e+04
4.5879889333e+04
4.3905103928e+04
4.1963695347e+04
4.0169876957e+04
3.8611446396e+04
3.7344365143e+04
3.6394071315e+04
3.5742012427e+04
3.5264559999e+04