# vtk DataFile Version 2.0
Blank
ASCII
DATASET STRUCTURED_GRID
DIMENSIONS 101 11 2
POINTS 2222 float
0.0000000000e+00 0.0000000000e+00 0.0000000000e+00
1.0000000000e-02 0.0000000000e+00 0.0000000000e+00
2.0000000000e-02 0.0000000000e+00 0.0000000000e+00
3.0000000000e-02 0.0000000000e+00 0.0000000000e+00
4.0000000000e-02 0.0000000000e+00 0.0000000000e+00
5.0000000000e-02 0.0000000000e+00 0.0000000000e+00
6.0000000000e-02 0.0000000000e+00 0.0000000000e+00
7.0000000000e-02 0.0000000000e+00 0.0000000000e+00
8.0000000000e-02 0.0000000000e+00 0.0000000000e+00
9.0000000000e-02 0.0000000000e+00 0.0000000000e+00
1.0000000000e-01 0.0000000000e+00 0.0000000000e+00
1.1000000000e-01 0.0000000000e+00 0.0000000000e+00
1.2000000000e-01 0.0000000000e+00 0.0000000000e+00
1.3000000000e-01 0.0000000000e+00 0.0000000000e+00
1.4000000000e-01 0.0000000000e+00 0.0000000000e+00
1.5000000000e-01 0.0000000000e+00 0.0000000000e+00
1.6000000000e-01 0.0000000000e+00 0.0000000000e+00
1.7000000000e-01 0.0000000000e+00 0.0000000000e+00
1.8000000000e-01 0.0000000000e+00 0.0000000000e+00
1.9000000000e-01 0.0000000000e+00 0.0000000000e+00
2.0000000000e-01 0.0000000000e+00 0.0000000000e+00
2.1000000000e-01 0.0000000000e+00 0.0000000000e+00
2.2000000000e-01 0.0000000000e+00 0.0000000000e+00
2.3000000000e-01 0.0000000000e+00 0.0000000000e+00
2.4000000000e-01 0.0000000000e+00 0.0000000000e+00
2.5000000000e-01 0.0000000000e+00 0.0000000000e+00
2.6000000000e-01 0.0000000000e+00 0.0000000000e+00
2.7000000000e-01 0.0000000000e+00 0.0000000000e+00
2.8000000000e-01 0.0000000000e+00 0.0000000000e+00
2.9000000000e-01 0.0000000000e+00 0.0000000000e+00
3.0000000000e-01 0.0000000000e+00 0.0000000000e+00
3.1000000000e-01 0.0000000000e+00 0.0000000000e+00
3.2000000000e-01 0.0000000000e+00 0.0000000000e+00
3.3000000000e-01 0.0000000000e+00 0.0000000000e+00
3.4000000000e-01 0.0000000000e+00 0.0000000000e+00
3.5000000000e-01 0.0000000000e+00 0.0000000000e+00
3.6000000000e-01 0.0000000000e+00 0.0000000000e+00
3.7000000000e-01 0.0000000000e+00 0.0000000000e+00
3.8000000000e-01 0.0000000000e+00 0.0000000000e+00
3.9000000000e-01 0.0000000000e+00 0.0000000000e+00
4.0000000000e-01 0.0000000000e+00 0.0000000000e+00
4.1000000000e-01 0.0000000000e+00 0.0000000000e+00
4.2000000000e-01 0.0000000000e+00 0.0000000000e+00
4.3000000000e-01 0.0000000000e+00 0.0000000000e+00
4.4000000000e-01 0.0000000000e+00 0.0000000000e+00
4.5000000000e-01 0.0000000000e+00 0.0000000000e+00
4.6000000000e-01 0.0000000000e+00 0.0000000000e+00
4.7000000000e-01 0.0000000000e+00 0.0000000000e+00
4.8000000000e-01 0.0000000000e+00 0.0000000000e+00
4.9000000000e-01 0.0000000000e+00 0.0000000000e+00
5.0000000000e-01 0.0000000000e+00 0.0000000000e+00
5.1000000000e-01 0.0000000000e+00 0.0000000000e+00
5.2000000000e-01 0.0000000000e+00 0.0000000000e+00
5.3000000000e-01 0.0000000000e+00 0.0000000000e+00
5.4000000000e-01 0.0000000000e+00 0.0000000000e+00
5.5000000000e-01 0.0000000000e+00 0.0000000000e+00
5.6000000000e-01 0.0000000000e+00 0.0000000000e+00
5.7000000000e-01 0.0000000000e+00 0.0000000000e+00
5.8000000000e-01 0.0000000000e+00 0.0000000000e+00
5.9000000000e-01 0.0000000000e+00 0.0000000000e+00
6.0000000000e-01 0.0000000000e+00 0.0000000000e+00
6.1000000000e-01 0.0000000000e+00 0.0000000000e+00
6.2000000000e-01 0.0000000000e+00 0.0000000000e+00
6.3000000000e-01 0.0000000000e+00 0.0000000000e+00
6.4000000000e-01 0.0000000000e+00 0.0000000000e+00
6.5000000000e-01 0.0000000000e+00 0.0000000000e+00
6.6000000000e-01 0.0000000000e+00 0.0000000000e+00
6.7000000000e-01 0.0000000000e+00 0.0000000000e+00
6.8000000000e-01 0.0000000000e+00 0.0000000000e+00
6.9000000000e-01 0.0000000000e+00 0.0000000000e+00
7.0000000000e-01 0.0000000000e+00 0.0000000000e+00
7.1000000000e-01 0.0000000000e+00 0.0000000000e+00
7.2000000000e-01 0.0000000000e+00 0.0000000000e+00
7.3000000000e-01 0.0000000000e+00 0.0000000000e+00
7.4000000000e-01 0.0000000000e+00 0.0000000000e+00
7.5000000000e-01 0.0000000000e+00 0.0000000000e+00
7.6000000000e-01 0.0000000000e+00 0.0000000000e+00
7.7000000000e-01 0.0000000000e+00 0.0000000000e+00
7.8000000000e-01 0.0000000000e+00 0.0000000000e+00
7.9000000000e-01 0.0000000000e+00 0.0000000000e+00
8.0000000000e-01 0.0000000000e+00 0.0000000000e+00
8.1000000000e-01 0.0000000000e+00 0.0000000000e+00
8.2000000000e-01 0.0000000000e+00 0.0000000000e+00
8.3000000000e-01 0.0000000000e+00 0.0000000000e+00
8.4000000000e-01 0.0000000000e+00 0.0000000000e+00
8.5000000000e-01 0.0000000000e+00 0.0000000000e+00
8.6000000000e-01 0.0000000000e+00 0.0000000000e+00
8.7000000000e-01 0.0000000000e+00 0.0000000000e+00
8.8000000000e-01 0.0000000000e+00 0.0000000000e+00
8.9000000000e-01 0.0000000000e+00 0.0000000000e+00
9.0000000000e-01 0.0000000000e+00 0.0000000000e+00
9.1000000000e-01 0.0000000000e+00 0.0000000000e+00
9.2000000000e-01 0.0000000000e+00 0.0000000000e+00
9.3000000000e-01 0.0000000000e+00 0.0000000000e+00
9.4000000000e-01 0.0000000000e+00 0.0000000000e+00
9.5000000000e-01 0.0000000000e+00 0.0000000000e+00
9.6000000000e-01 0.0000000000e+00 0.0000000000e+00
9.7000000000e-01 0.0000000000e+00 0.0000000000e+00
9.8000000000e-01 0.0000000000e+00 0.0000000000e+00
9.9000000000e-01 0.0000000000e+00 0.0000000000e+00
1.0000000000e+00 0.0000000000e+00 0.0000000000e+00
0.0000000000e+00 1.0000000000e-03 0.0000000000e+00
1.0000000000e-02 1.0000000000e-03 0.0000000000e+00
2.0000000000e-02 1.0000000000e-03 0.0000000000e+00
3.0000000000e-02 1.0000000000e-03 0.0000000000e+00
4.0000000000e-02 1.0000000000e-03 0.0000000000e+00
5.0000000000e-02 1.0000000000e-03 0.0000000000e+00
6.0000000000e-02 1.0000000000e-03 0.0000000000e+00
7.0000000000e-02 1.0000000000e-03 0.0000000000e+00
8.0000000000e-02 1.0000000000e-03 0.0000000000e+00
9.0000000000e-02 1.0000000000e-03 0.0000000000e+00
1.0000000000e-01 1.0000000000e-03 0.0000000000e+00
1.1000000000e-01 1.0000000000e-03 0.0000000000e+00
1.2000000000e-01 1.0000000000e-03 0.0000000000e+00
1.3000000000e-01 1.0000000000e-03 0.0000000000e+00
1.4000000000e-01 1.0000000000e-03 0.0000000000e+00
1.5000000000e-01 1.0000000000e-03 0.0000000000e+00
1.6000000000e-01 1.0000000000e-03 0.0000000000e+00
1.7000000000e-01 1.0000000000e-03 0.0000000000e+00
1.8000000000e-01 1.0000000000e-03 0.0000000000e+00
1.9000000000e-01 1.0000000000e-03 0.0000000000e+00
2.0000000000e-01 1.0000000000e-03 0.0000000000e+00
2.1000000000e-01 1.0000000000e-03 0.0000000000e+00
2.2000000000e-01 1.0000000000e-03 0.0000000000e+00
2.3000000000e-01 1.0000000000e-03 0.0000000000e+00
2.4000000000e-01 1.0000000000e-03 0.0000000000e+00
2.5000000000e-01 1.0000000000e-03 0.0000000000e+00
2.6000000000e-01 1.0000000000e-03 0.0000000000e+00
2.7000000000e-01 1.0000000000e-03 0.0000000000e+00
2.8000000000e-01 1.0000000000e-03 0.0000000000e+00
2.9000000000e-01 1.0000000000e-03 0.0000000000e+00
3.0000000000e-01 1.0000000000e-03 0.0000000000e+00
3.1000000000e-01 1.0000000000e-03 0.0000000000e+00
3.2000000000e-01 1.0000000000e-03 0.0000000000e+00
3.3000000000e-01 1.0000000000e-03 0.0000000000e+00
3.4000000000e-01 1.0000000000e-03 0.0000000000e+00
3.5000000000e-01 1.0000000000e-03 0.0000000000e+00
3.6000000000e-01 1.0000000000e-03 0.0000000000e+00
3.7000000000e-01 1.0000000000e-03 0.0000000000e+00
3.8000000000e-01 1.0000000000e-03 0.0000000000e+00
3.9000000000e-01 1.0000000000e-03 0.0000000000e+00
4.0000000000e-01 1.0000000000e-03 0.0000000000e+00
4.1000000000e-01 1.0000000000e-03 0.0000000000e+00
4.2000000000e-01 1.0000000000e-03 0.0000000000e+00
4.3000000000e-01 1.0000000000e-03 0.0000000000e+00
4.4000000000e-01 1.0000000000e-03 0.0000000000e+00
4.5000000000e-01 1.0000000000e-03 0.0000000000e+00
4.6000000000e-01 1.0000000000e-03 0.0000000000e+00
4.7000000000e-01 1.0000000000e-03 0.0000000000e+00
4.8000000000e-01 1.0000000000e-03 0.0000000000e+00
4.9000000000e-01 1.0000000000e-03 0.0000000000e+00
5.0000000000e-01 1.0000000000e-03 0.0000000000e+00
5.1000000000e-01 1.0000000000e-03 0.0000000000e+00
5.2000000000e-01 1.0000000000e-03 0.0000000000e+00
5.3000000000e-01 1.0000000000e-03 0.0000000000e+00
5.4000000000e-01 1.0000000000e-03 0.0000000000e+00
5.5000000000e-01 1.0000000000e-03 0.0000000000e+00
5.6000000000e-01 1.0000000000e-03 0.0000000000e+00
5.7000000000e-01 1.0000000000e-03 0.0000000000e+00
5.8000000000e-01 1.0000000000e-03 0.0000000000e+00
5.9000000000e-01 1.0000000000e-03 0.0000000000e+00
6.0000000000e-01 1.0000000000e-03 0.0000000000e+00
6.1000000000e-01 1.0000000000e-03 0.0000000000e+00
6.2000000000e-01 1.0000000000e-03 0.0000000000e+00
6.3000000000e-01 1.0000000000e-03 0.0000000000e+00
6.4000000000e-01 1.0000000000e-03 0.0000000000e+00
6.5000000000e-01 1.0000000000e-03 0.0000000000e+00
6.6000000000e-01 1.0000000000e-03 0.0000000000e+00
6.7000000000e-01 1.0000000000e-03 0.0000000000e+00
6.8000000000e-01 1.0000000000e-03 0.0000000000e+00
6.9000000000e-01 1.0000000000e-03 0.0000000000e+00
7.0000000000e-01 1.0000000000e-03 0.0000000000e+00
7.1000000000e-01 1.0000000000e-03 0.0000000000e+00
7.2000000000e-01 1.0000000000e-03 0.0000000000e+00
7.3000000000e-01 1.0000000000e-03 0.0000000000e+00
7.4000000000e-01 1.0000000000e-03 0.0000000000e+00
7.5000000000e-01 1.0000000000e-03 0.0000000000e+00
7.6000000000e-01 1.0000000000e-03 0.0000000000e+00
7.7000000000e-01 1.0000000000e-03 0.0000000000e+00
7.8000000000e-01 1.0000000000e-03 0.0000000000e+00
7.9000000000e-01 1.0000000000e-03 0.0000000000e+00
8.0000000000e-01 1.0000000000e-03 0.0000000000e+00
8.1000000000e-01 1.0000000000e-03 0.0000000000e+00
8.2000000000e-01 1.0000000000e-03 0.0000000000e+00
8.3000000000e-01 1.0000000000e-03 0.0000000000e+00
8.4000000000e-01 1.0000000000e-03 0.0000000000e+00
8.5000000000e-01 1.0000000000e-03 0.0000000000e+00
8.6000000000e-01 1.0000000000e-03 0.0000000000e+00
8.7000000000e-01 1.0000000000e-03 0.0000000000e+00
8.8000000000e-01 1.0000000000e-03 0.0000000000e+00
8.9000000000e-01 1.0000000000e-03 0.0000000000e+00
9.0000000000e-01 1.0000000000e-03 0.0000000000e+00
9.1000000000e-01 1.0000000000e-03 0.0000000000e+00
9.2000000000e-01 1.0000000000e-03 0.0000000000e+00
[...]
CELL_DATA 1000

SCALARS massDensity float
LOOKUP_TABLE default
9.9999999996e+02
9.9999999996e+02
9.9999999996e+02
9.9999999996e+02
9.9999999996e+02
9.9999999996e+02
9.9999999996e+02
9.9999999996e+02
9.9999999996e+02
9.9999999996e+02
9.9999999996e+02
9.9999999996e+02
9.9999999995e+02
9.9999999994e+02
9.9999999990e+02
9.9999999976e+02
9.9999999921e+02
9.9999999725e+02
9.9999999055e+02
9.9999996841e+02
9.9999989794e+02
9.9999968219e+02
9.9999904765e+02
9.9999725690e+02
9.9999241466e+02
9.9997988818e+02
9.9994893845e+02
9.9987603631e+02
9.9971264550e+02
9.9936493793e+02
9.9866385944e+02
9.9732736293e+02
9.9492307722e+02
9.9084768239e+02
9.8434402728e+02
9.7457191549e+02
9.6073031213e+02
9.4220365557e+02
9.1868783825e+02
8.9025533688e+02
8.5734337792e+02
8.2067910203e+02
7.8117447547e+02
7.3982453585e+02
6.9763073043e+02
6.5555634495e+02
6.1450984175e+02
5.7534528714e+02
5.3886442838e+02
5.0579857505e+02
4.7673853659e+02
4.5197670007e+02
4.3125499335e+02
4.1362388238e+02
3.9746515799e+02
3.8110194920e+02
3.6359073982e+02
3.4512719945e+02
3.2685912395e+02
3.1029949546e+02
2.9661029809e+02
2.8574271613e+02
2.7543691703e+02
2.6113849748e+02
2.3866026824e+02
2.0841264857e+02
1.7688384079e+02
1.5195979008e+02
1.3687415787e+02
1.2961120435e+02
1.2664998382e+02
1.2556098036e+02
1.2518403461e+02
1.2505860031e+02
1.2501813940e+02
1.2500545798e+02
1.2500159547e+02
1.2500045284e+02
1.2500012475e+02
1.2500003334e+02
1.2500000865e+02
1.2500000218e+02
1.2500000054e+02
1.2500000013e+02
1.2500000003e+02
1.2500000001e+02
1.2500000001e+02
1.2500000001e+02
1.2500000000e+02
1.2500000000e+02
1.2500000000e+02
1.2500000000e+02
1.2500000000e+02
1.2500000000e+02
1.2500000000e+02
1.2500000000e+02
1.2500000000e+02
1.2500000000e+02
1.2500000000e+02
1.2500000000e+02
9.9999999996e+02
9.9999999996e+02
9.9999999996e+02
9.9999999996e+02
9.9999999996e+02
9.9999999996e+02
9.9999999996e+02
9.9999999996e+02
9.9999999996e+02
9.9999999996e+02
9.9999999996e+02
9.9999999996e+02
9.9999999995e+02
9.9999999994e+02
9.9999999990e+02
9.9999999976e+02
9.9999999921e+02
9.9999999725e+02
9.9999999055e+02
9.9999996841e+02
9.9999989794e+02
9.9999968219e+02
9.9999904765e+02
9.9999725690e+02
9.9999241466e+02
9.9997988818e+02
9.9994893845e+02
9.9987603631e+02
9.9971264550e+02
9.9936493793e+02
9.9866385944e+02
9.9732736293e+02
9.9492307722e+02
9.9084768239e+02
9.8434402728e+02
9.7457191549e+02
9.6073031213e+02
9.4220365557e+02
9.1868783825e+02
8.9025533688e+02
8.5734337792e+02
8.2067910203e+02
7.8117447547e+02
7.3982453585e+02
6.9763073043e+02
6.5555634495e+02
6.1450984175e+02
5.7534528714e+02
5.3886442838e+02
5.0579857505e+02
4.7673853659e+02
4.5197670007e+02
4.3125499335e+02
4.1362388238e+02
3.9746515799e+02
3.8110194920e+02
3.6359073982e+02
3.4512719945e+02
3.2685912395e+02
3.1029949546e+02
2.9661029809e+02
2.8574271613e+02
2.7543691703e+02
2.6113849748e+02
2.3866026824e+02
2.0841264857e+02
1.7688384079e+02
1.5195979008e+02
1.3687415787e+02
1.2961120435e+02
1.2664998382e+02
1.2556098036e+02
1.2518403461e+02
1.2505860031e+02
1.2501813940e+02
1.2500545798e+02
1.2500159547e+02
1.2500045284e+02
1.2500012475e+02
1.2500003334e+02
1.2500000865e+02
1.2500000218e+02
1.2500000054e+02
1.2500000013e+02
1.2500000003e+02
1.2500000001e+02
1.2500000001e+02
1.2500000001e+02
1.2500000000e+02
1.2500000000e+02
1.2500000000e+02
1.2500000000e+02
1.2500000000e+02
1.2500000000e+02
1.2500000000e+02
1.2500000000e+02
1.2500000000e+02
1.2500000000e+02
1.2500000000e+02
1.2500000000e+02
9.9999999996e+02
9.9999999996e+02
9.9999999996e+02
9.9999999996e+02
9.9999999996e+02
9.9999999996e+02
9.9999999996e+02
9.9999999996e+02
9.9999999996e+02
9.9999999996e+02
9.9999999996e+02
9.9999999996e+02
9.9999999995e+02
9.9999999994e+02
9.9999999990e+02
9.9999999976e+02
9.9999999921e+02
9.9999999725e+02
9.9999999055e+02
9.9999996841e+02
9.9999989794e+02
9.9999968219e+02
9.9999904765e+02
9.9999725690e+02
9.9999241466e+02
9.9997988818e+02
9.9994893845e+02
9.9987603631e+02
9.9971264550e+02
9.9936493793e+02
9.9866385944e+02
9.9732736293e+02
9.9492307722e+02
9.9084768239e+02
9.8434402728e+02
9.7457191549e+02
9.6073031213e+02
9.4220365557e+02
9.1868783825e+02
8.9025533688e+02
8.5734337792e+02
8.2067910203e+02
7.8117447547e+02
7.3982453585e+02
6.9763073043e+02
6.5555634495e+02
6.1450984175e+02
5.7534528714e+02
5.3886442838e+02
5.0579857505e+02
4.7673853659e+02
4.5197670007e+02
4.3125499335e+02
4.1362388238e+02
3.9746515799e+02
3.8110194920e+02
3.6359073982e+02
3.4512719945e+02
3.2685912395e+02
3.1029949546e+02
2.9661029809e+02
2.8574271613e+02
2.7543691703e+02
2.6113849748e+02
2.3866026824e+02
2.0841264857e+02
1.7688384079e+02
1.5195979008e+02
1.3687415787e+02
1.2961120435e+02
1.2664998382e+02
1.2556098036e+02
1.2518403461e+02
1.2505860031e+02
1.2501813940e+02
1.2500545798e+02
1.2500159547e+02
1.2500045284e+02
1.2500012475e+02
1.2500003334e+02
1.2500000865e+02
1.2500000218e+02
1.2500000054e+02
1.2500000013e+02
1.2500000003e+02
1.2500000001e+02
1.2500000001e+02
1.2500000001e+02
1.2500000000e+02
1.2500000000e+02
1.2500000000e+02
1.2500000000e+02
1.2500000000e+02
1.2500000000e+02
1.2500000000e+02
1.2500000000e+02
1.2500000000e+02
1.2500000000e+02
1.2500000000e+02
1.2500000000e+02
9.9999999996e+02
9.9999999996e+02
9.9999999996e+02
9.9999999996e+02
9.9999999996e+02
9.9999999996e+02
9.9999999996e+02
9.9999999996e+02
9.9999999996e+02
9.9999999996e+02
9.9999999996e+02
9.9999999996e+02
9.9999999995e+02
9.9999999994e+02
9.9999999990e+02
9.9999999976e+02
9.9999999921e+02
9.9999999725e+02
9.9999999055e+02
9.9999996841e+02
9.9999989794e+02
9.9999968219e+02
9.9999904765e+02
9.9999725690e+02
9.9999241466e+02
9.9997988818e+02
9.9994893845e+02
9.9987603631e+02
9.9971264550e+02
9.9936493793e+02
9.9866385944e+02
9.9732736293e+02
9.9492307722e+02
9.9084768239e+02
9.8434402728e+02
9.7457191549e+02
9.6073031213e+02
9.4220365557e+02
9.1868783825e+02
8.9025533688e+02
8.5734337792e+02
8.2067910203e+02
7.8117447547e+02
7.3982453585e+02
6.9763073043e+02
6.5555634495e+02
6.1450984175e+02
5.7534528714e+02
5.3886442838e+02
5.0579857505e+02
4.7673853659e+02
4.5197670007e+02
4.3125499335e+02
4.1362388238e+02
3.9746515799e+02
3.8110194920e+02
3.6359073982e+02
3.4512719945e+02
3.2685912395e+02
3.1029949546e+02
2.9661029809e+02
2.8574271613e+02
2.7543691703e+02
2.6113849748e+02
2.3866026824e+02
2.0841264857e+02
1.7688384079e+02
1.5195979008e+02
1.3687415787e+02
1.2961120435e+02
1.2664998382e+02
1.2556098036e+02
1.2518403461e+02
1.2505860031e+02
1.2501813940e+02
1.2500545798e+02
1.2500159547e+02
1.2500045284e+02
1.2500012475e+02
1.2500003334e+02
1.2500000865e+02
1.2500000218e+02
1.2500000054e+02
1.2500000013e+02
1.2500000003e+02
1.2500000001e+02
1.2500000001e+02
1.2500000001e+02
1.2500000000e+02
1.2500000000e+02
1.2500000000e+02
1.2500000000e+02
1.2500000000e+02
1.2500000000e+02
1.2500000000e+02
1.2500000000e+02
1.2500000000e+02
1.2500000000e+02
1.2500000000e+02
1.2500000000e+02
9.9999999996e+02
9.9999999996e+02
9.9999999996e+02
9.9999999996e+02
9.9999999996e+02
9.9999999996e+02
9.9999999996e+02
9.9999999996e+02
9.9999999996e+02
9.9999999996e+02
9.9999999996e+02
9.9999999996e+02
9.9999999995e+02
9.9999999994e+02
9.9999999990e+02
9.9999999976e+02
9.9999999921e+02
9.9999999725e+02
9.9999999055e+02
9.9999996841e+02
9.9999989794e+02
9.9999968219e+02
9.9999904765e+02
9.9999725690e+02
9.9999241466e+02
9.9997988818e+02
9.9994893845e+02
9.9987603631e+02
9.9971264550e+02
9.9936493793e+02
9.9866385944e+02
9.9732736293e+02
9.9492307722e+02
9.9084768239e+02
9.8434402728e+02
9.7457191549e+02
9.6073031213e+02
9.4220365557e+02
9.1868783825e+02
8.9025533688e+02
8.5734337792e+02
8.2067910203e+02
7.8117447547e+02
7.3982453585e+02
6.9763073043e+02
6.5555634495e+02
6.1450984175e+02
5.7534528714e+02
5.3886442838e+02
5.0579857505e+02
4.7673853659e+02
4.5197670007e+02
4.3125499335e+02
4.1362388238e+02
3.9746515799e+02
3.8110194920e+02
3.6359073982e+02
3.4512719945e+02
3.2685912395e+02
3.1029949546e+02
2.9661029809e+02
2.8574271613e+02
2.7543691703e+02
2.6113849748e+02
2.3866026824e+02
2.0841264857e+02
1.7688384079e+02
1.5195979008e+02
1.3687415787e+02
1.2961120435e+02
1.2664998382e+02
1.2556098036e+02
1.2518403461e+02
1.2505860031e+02
1.2501813940e+02
1.2500545798e+02
1.2500159547e+02
1.2500045284e+02
1.2500012475e+02
1.2500003334e+02
1.2500000865e+02
1.2500000218e+02
1.2500000054e+02
1.2500000013e+02
1.2500000003e+02
1.2500000001e+02
1.2500000001e+02
1.2500000001e+02
1.2500000000e+02
1.2500000000e+02
1.2500000000e+02
1.2500000000e+02
1.2500000000e+02
1.2500000000e+02
1.2500000000e+02
1.2500000000e+02
1.2500000000e+02
1.2500000000e+02
1.2500000000e+02
1.2500000000e+02
9.9999999996e+02
9.9999999996e+02
9.9999999996e+02
9.9999999996e+02
9.9999999996e+02
9.9999999996e+02
9.9999999996e+02
9.9999999996e+02
9.9999999996e+02
9.9999999996e+02
9.9999999996e+02
9.9999999996e+02
9.9999999995e+02
9.9999999994e+02
9.9999999990e+02
9.9999999976e+02
9.9999999921e+02
9.9999999725e+02
9.9999999055e+02
9.9999996841e+02
9.9999989794e+02
9.9999968219e+02
9.9999904765e+02
9.9999725690e+02
9.9999241466e+02
9.9997988818e+02
9.9994893845e+02
9.9987603631e+02
9.9971264550e+02
9.9936493793e+02
9.9866385944e+02
9.9732736293e+02
9.9492307722e+02
9.9084768239e+02
9.8434402728e+02
9.7457191549e+02
9.6073031213e+02
9.4220365557e+02
9.1868783825e+02
8.9025533688e+02
8.5734337792e+02
8.2067910203e+02
7.8117447547e+02
7.3982453585e+02
6.9763073043e+02
6.5555634495e+02
6.1450984175e+02
5.7534528714e+02
5.3886442838e+02
5.0579857505e+02
4.7673853659e+02
4.5197670007e+02
4.3125499335e+02
4.1362388238e+02
3.9746515799e+02
3.8110194920e+02
3.6359073982e+02
3.4512719945e+02
3.2685912395e+02
3.1029949546e+02
2.9661029809e+02
2.8574271613e+02
2.7543691703e+02
2.6113849748e+02
2.3866026824e+02
2.0841264857e+02
1.7688384079e+02
1.5195979008e+02
1.3687415787e+02
1.2961120435e+02
1.2664998382e+02
1.2556098036e+02
1.2518403461e+02
1.2505860031e+02
1.2501813940e+02
1.2500545798e+02
1.2500159547e+02
1.2500045284e+02
1.2500012475e+02
1.2500003334e+02
1.2500000865e+02
1.2500000218e+02
1.2500000054e+02
1.2500000013e+02
1.2500000003e+02
1.2500000001e+02
1.2500000001e+02
1.2500000001e+02
1.2500000000e+02
1.2500000000e+02
1.2500000000e+02
1.2500000000e+02
1.2500000000e+02
1.2500000000e+02
1.2500000000e+02
1.2500000000e+02
1.2500000000e+02
1.2500000000e+02
1.2500000000e+02
1.2500000000e+02
9.9999999996e+02
9.9999999996e+02
9.9999999996e+02
9.9999999996e+02
9.9999999996e+02
9.9999999996e+02
9.9999999996e+02
9.9999999996e+02
9.9999999996e+02
9.9999999996e+02
9.9999999996e+02
9.9999999996e+02
9.9999999995e+02
9.9999999994e+02
9.9999999990e+02
9.9999999976e+02
9.9999999921e+02
9.9999999725e+02
9.9999999055e+02
9.9999996841e+02
9.9999989794e+02
9.9999968219e+02
9.9999904765e+02
9.9999725690e+02
9.9999241466e+02
9.9997988818e+02
9.9994893845e+02
9.9987603631e+02
9.9971264550e+02
9.9936493793e+02
9.9866385944e+02
9.9732736293e+02
9.9492307722e+02
9.9084768239e+02
9.8434402728e+02
9.7457191549e+02
9.6073031213e+02
9.4220365557e+02
9.1868783825e+02
8.9025533688e+02
8.5734337792e+02
8.2067910203e+02
7.8117447547e+02
7.3982453585e+02
6.9763073043e+02
6.5555634495e+02
6.1450984175e+02
5.7534528714e+02
5.3886442838e+02
5.0579857505e+02
4.7673853659e+02
4.5197670007e+02
4.3125499335e+02
4.1362388238e+02
3.9746515799e+02
3.8110194920e+02
3.6359073982e+02
3.4512719945e+02
3.2685912395e+02
3.1029949546e+02
2.9661029809e+02
2.8574271613e+02
2.7543691703e+02
2.6113849748e+02
2.3866026824e+02
2.0841264857e+02
1.7688384079e+02
1.5195979008e+02
1.3687415787e+02
1.2961120435e+02
1.2664998382e+02
1.2556098036e+02
1.2518403461e+02
1.2505860031e+02
1.2501813940e+02
1.2500545798e+02
1.2500159547e+02
1.2500045284e+02
1.2500012475e+02
1.2500003334e+02
1.2500000865e+02
1.2500000218e+02
1.2500000054e+02
1.2500000013e+02
1.2500000003e+02
1.2500000001e+02
1.2500000001e+02
1.2500000001e+02
1.2500000000e+02
1.2500000000e+02
1.2500000000e+02
1.2500000000e+02
1.2500000000e+02
1.2500000000e+02
1.2500000000e+02
1.2500000000e+02
1.2500000000e+02
1.2500000000e+02
1.2500000000e+02
1.2500000000e+02
9.9999999996e+02
9.9999999996e+02
9.9999999996e+02
9.9999999996e+02
9.9999999996e+02
9.9999999996e+02
9.9999999996e+02
9.9999999996e+02
9.9999999996e+02
9.9999999996e+02
9.9999999996e+02
9.9999999996e+02
9.9999999995e+02
9.9999999994e+02
9.9999999990e+02
9.9999999976e+02
9.9999999921e+02
9.9999999725e+02
9.9999999055e+02
9.9999996841e+02
9.9999989794e+02
9.9999968219e+02
9.9999904765e+02
9.9999725690e+02
9.9999241466e+02
9.9997988818e+02
9.9994893845e+02
9.9987603631e+02
9.9971264550e+02
9.9936493793e+02
9.9866385944e+02
9.9732736293e+02
9.9492307722e+02
9.9084768239e+02
9.8434402728e+02
9.7457191549e+02
9.6073031213e+02
9.4220365557e+02
9.1868783825e+02
8.9025533688e+02
8.5734337792e+02
8.2067910203e+02
7.8117447547e+02
7.3982453585e+02
6.9763073043e+02
6.5555634495e+02
6.1450984175e+02
5.7534528714e+02
5.3886442838e+02
5.0579857505e+02
4.7673853659e+02
4.5197670007e+02
4.3125499335e+02
4.1362388238e+02
3.9746515799e+02
3.8110194920e+02
3.6359073982e+02
3.4512719945e+02
3.2685912395e+02
3.1029949546e+02
2.9661029809e+02
2.8574271613e+02
2.7543691703e+02
2.6113849748e+02
2.3866026824e+02
2.0841264857e+02
1.7688384079e+02
1.5195979008e+02
1.3687415787e+02
1.2961120435e+02
1.2664998382e+02
1.2556098036e+02
1.2518403461e+02
1.2505860031e+02
1.2501813940e+02
1.2500545798e+02
1.2500159547e+02
1.2500045284e+02
1.2500012475e+02
1.2500003334e+02
1.2500000865e+02
1.2500000218e+02
1.2500000054e+02
1.2500000013e+02
1.2500000003e+02
1.2500000001e+02
1.2500000001e+02
1.2500000001e+02
1.2500000000e+02
1.2500000000e+02
1.2500000000e+02
1.2500000000e+02
1.2500000000e+02
1.2500000000e+02
1.2500000000e+02
1.2500000000e+02
1.2500000000e+02
1.2500000000e+02
1.2500000000e+02
1.2500000000e+02
9.9999999996e+02
9.9999999996e+02
9.9999999996e+02
9.9999999996e+02
9.9999999996e+02
9.9999999996e+02
9.9999999996e+02
9.9999999996e+02
9.9999999996e+02
9.9999999996e+02
9.9999999996e+02
9.9999999996e+02
9.9999999995e+02
9.9999999994e+02
9.9999999990e+02
9.9999999976e+02
9.9999999921e+02
9.9999999725e+02
9.9999999055e+02
9.9999996841e+02
9.9999989794e+02
9.9999968219e+02
9.9999904765e+02
9.9999725690e+02
9.9999241466e+02
9.9997988818e+02
9.9994893845e+02
9.9987603631e+02
9.9971264550e+02
9.9936493793e+02
9.9866385944e+02
9.9732736293e+02
9.9492307722e+02
9.9084768239e+02
9.8434402728e+02
9.7457191549e+02
9.6073031213e+02
9.4220365557e+02
9.1868783825e+02
8.9025533688e+02
8.5734337792e+02
8.2067910203e+02
7.8117447547e+02
7.3982453585e+02
6.9763073043e+02
6.5555634495e+02
6.1450984175e+02
5.7534528714e+02
5.3886442838e+02
5.0579857505e+02
4.7673853659e+02
4.5197670007e+02
4.3125499335e+02
4.1362388238e+02
3.9746515799e+02
3.8110194920e+02
3.6359073982e+02
3.4512719945e+02
3.2685912395e+02
3.1029949546e+02
2.9661029809e+02
2.8574271613e+02
2.7543691703e+02
2.6113849748e+02
2.3866026824e+02
2.0841264857e+02
1.7688384079e+02
1.5195979008e+02
1.3687415787e+02
1.2961120435e+02
1.2664998382e+02
1.2556098036e+02
1.2518403461e+02
1.2505860031e+02
1.2501813940e+02
1.2500545798e+02
1.2500159547e+02
1.2500045284e+02
1.2500012475e+02
1.2500003334e+02
1.2500000865e+02
1.2500000218e+02
1.2500000054e+02
1.2500000013e+02
1.2500000003e+02
1.2500000001e+02
1.2500000001e+02
1.2500000001e+02
1.2500000000e+02
1.2500000000e+02
1.2500000000e+02
1.2500000000e+02
1.2500000000e+02
1.2500000000e+02
1.2500000000e+02
1.2500000000e+02
1.2500000000e+02
1.2500000000e+02
1.2500000000e+02
1.2500000000e+02
9.9999999996e+02
9.9999999996e+02
9.9999999996e+02
9.9999999996e+02
9.9999999996e+02
9.9999999996e+02
9.9999999996e+02
9.9999999996e+02
9.9999999996e+02
9.9999999996e+02
9.9999999996e+02
9.9999999996e+02
9.9999999995e+02
9.9999999994e+02
9.9999999990e+02
9.9999999976e+02
9.9999999921e+02
9.9999999725e+02
9.9999999055e+02
9.9999996841e+02
9.9999989794e+02
9.9999968219e+02
9.9999904765e+02
9.9999725690e+02
9.9999241466e+02
9.9997988818e+02
9.9994893845e+02
9.9987603631e+02
9.9971264550e+02
9.9936493793e+02
9.9866385944e+02
9.9732736293e+02
9.9492307722e+02
9.9084768239e+02
9.8434402728e+02
9.7457191549e+02
9.6073031213e+02
9.4220365557e+02
9.1868783825e+02
8.9025533688e+02
8.5734337792e+02
8.2067910203e+02
7.8117447547e+02
7.3982453585e+02
6.9763073043e+02
6.5555634495e+02
6.1450984175e+02
5.7534528714e+02
5.3886442838e+02
5.0579857505e+02
4.7673853659e+02
4.5197670007e+02
4.3125499335e+02
4.1362388238e+02
3.9746515799e+02
3.8110194920e+02
3.6359073982e+02
3.4512719945e+02
3.2685912395e+02
3.1029949546e+02
2.9661029809e+02
2.8574271613e+02
2.7543691703e+02
2.6113849748e+02
2.3866026824e+02
2.0841264857e+02
1.7688384079e+02
1.5195979008e+02
1.3687415787e+02
1.2961120435e+02
1.2664998382e+02
1.2556098036e+02
1.2518403461e+02
1.2505860031e+02
1.2501813940e+02
1.2500545798e+02
1.2500159547e+02
1.2500045284e+02
1.2500012475e+02
1.2500003334e+02
1.2500000865e+02
1.2500000218e+02
1.2500000054e+02
1.2500000013e+02
1.2500000003e+02
1.2500000001e+02
1.2500000001e+02
1.2500000001e+02
1.2500000000e+02
1.2500000000e+02
1.2500000000e+02
1.2500000000e+02
1.2500000000e+02
1.2500000000e+02
1.2500000000e+02
1.2500000000e+02
1.2500000000e+02
1.2500000000e+02
1.2500000000e+02
1.2500000000e+02

SCALARS molarDensity float
LOOKUP_TABLE default
1.2977624132e+05
1.2977624132e+05
1.2977624132e+05
1.2977624132e+05
1.2977624132e+05
1.2977624132e+05
1.2977624132e+05
1.2977624132e+05
1.2977624132e+05
1.2977624132e+05
1.2977624132e+05
1.2977624132e+05
1.2977624132e+05
1.2977624132e+05
1.2977624131e+05
1.2977624130e+05
1.2977624122e+05
1.2977624097e+05
1.2977624010e+05
1.2977623723e+05
1.2977622808e+05
1.2977620008e+05
1.2977611773e+05
1.2977588534e+05
1.2977525693e+05
1.2977363129e+05
1.2976961475e+05
1.2976015378e+05
1.2973894954e+05
1.2969382536e+05
1.2960284203e+05
1.2942939653e+05
1.2911737737e+05
1.2858848795e+05
1.2774446803e+05
1.2647628010e+05
1.2467996884e+05
1.2227564898e+05
1.1922385460e+05
1.1553399144e+05
1.1126280111e+05
1.0650464920e+05
1.0137788725e+05
9.6011647504e+04
9.0535894030e+04
8.5075638426e+04
7.9748777520e+04
7.4666148830e+04
6.9931800099e+04
6.5640637939e+04
6.1869335374e+04
5.8655837303e+04
5.5966652090e+04
5.3678552779e+04
5.1581534262e+04
4.9457978530e+04
4.7185439595e+04
4.4789310724e+04
4.2418548549e+04
4.0269502207e+04
3.8492969625e+04
3.7082615685e+04
3.5745167815e+04
3.3889572669e+04
3.0972432566e+04
2.7047010176e+04
2.2955320009e+04
1.9720770390e+04
1.7763013743e+04
1.6820454935e+04
1.6436158864e+04
1.6294832088e+04
1.6245913485e+04
1.6229635094e+04
1.6224384230e+04
1.6222738482e+04
1.6222237220e+04
1.6222088934e+04
1.6222046355e+04
1.6222034493e+04
1.6222031288e+04
1.6222030449e+04
1.6222030235e+04
1.6222030183e+04
1.6222030170e+04
1.6222030167e+04
1.6222030167e+04
1.6222030167e+04
1.6222030166e+04
1.6222030166e+04
1.6222030166e+04
1.6222030166e+04
1.6222030166e+04
1.6222030166e+04
1.6222030166e+04
1.6222030166e+04
1.6222030166e+04
1.6222030166e+04
1.6222030166e+04
1.6222030166e+04
1.2977624132e+05
1.2977624132e+05
1.2977624132e+05
1.2977624132e+05
1.2977624132e+05
1.2977624132e+05
1.2977624132e+05
1.2977624132e+05
1.2977624132e+05
1.2977624132e+05
1.2977624132e+05
1.2977624132e+05
1.2977624132e+05
1.2977624132e+05
1.2977624131e+05
1.2977624130e+05
1.2977624122e+05
1.2977624097e+05
1.2977624010e+05
1.2977623723e+05
1.2977622808e+05
1.2977620008e+05
1.2977611773e+05
1.2977588534e+05
1.2977525693e+05
1.2977363129e+05
1.2976961475e+05
1.2976015378e+05
1.2973894954e+05
1.2969382536e+05
1.2960284203e+05
1.2942939653e+05
1.2911737737e+05
1.2858848795e+05
1.2774446803e+05
1.2647628010e+05
1.2467996884e+05
1.2227564898e+05
1.1922385460e+05
1.1553399144e+05
1.1126280111e+05
1.0650464920e+05
1.0137788725e+05
9.6011647504e+04
9.0535894030e+04
8.5075638426e+04
7.9748777520e+04
7.4666148830e+04
6.9931800099e+04
6.5640637939e+04
6.1869335374e+04
5.8655837303e+04
5.5966652090e+04
5.3678552779e+04
5.1581534262e+04
4.9457978530e+04
4.7185439595e+04
4.4789310724e+04
4.2418548549e+04
4.0269502207e+04
3.8492969625e+04
3.7082615685e+04
3.5745167815e+04
3.3889572669e+04
3.0972432566e+04
2.7047010176e+04
2.2955320009e+04
1.9720770390e+04
1.7763013743e+04