# vtk DataFile Version 2.0
Blank
ASCII
DATASET STRUCTURED_GRID
DIMENSIONS 101 11 2
POINTS 2222 float
0.0000000000e+00 0.0000000000e+00 0.0000000000e+00
1.0000000000e-02 0.0000000000e+00 0.0000000000e+00
2.0000000000e-02 0.0000000000e+00 0.0000000000e+00
3.0000000000e-02 0.0000000000e+00 0.0000000000e+00
4.0000000000e-02 0.0000000000e+00 0.0000000000e+00
5.0000000000e-02 0.0000000000e+00 0.0000000000e+00
6.0000000000e-02 0.0000000000e+00 0.0000000000e+00
7.0000000000e-02 0.0000000000e+00 0.0000000000e+00
8.0000000000e-02 0.0000000000e+00 0.0000000000e+00
9.0000000000e-02 0.0000000000e+00 0.0000000000e+00
1.0000000000e-01 0.0000000000e+00 0.0000000000e+00
1.1000000000e-01 0.0000000000e+00 0.0000000000e+00
1.2000000000e-01 0.0000000000e+00 0.0000000000e+00
1.3000000000e-01 0.0000000000e+00 0.0000000000e+00
1.4000000000e-01 0.0000000000e+00 0.0000000000e+00
1.5000000000e-01 0.0000000000e+00 0.0000000000e+00
1.6000000000e-01 0.0000000000e+00 0.0000000000e+00
1.7000000000e-01 0.0000000000e+00 0.0000000000e+00
1.8000000000e-01 0.0000000000e+00 0.0000000000e+00
1.9000000000e-01 0.0000000000e+00 0.0000000000e+00
2.0000000000e-01 0.0000000000e+00 0.0000000000e+00
2.1000000000e-01 0.0000000000e+00 0.0000000000e+00
2.2000000000e-01 0.0000000000e+00 0.0000000000e+00
2.3000000000e-01 0.0000000000e+00 0.0000000000e+00
2.4000000000e-01 0.0000000000e+00 0.0000000000e+00
2.5000000000e-01 0.0000000000e+00 0.0000000000e+00
2.6000000000e-01 0.0000000000e+00 0.0000000000e+00
2.7000000000e-01 0.0000000000e+00 0.0000000000e+00
2.8000000000e-01 0.0000000000e+00 0.0000000000e+00
2.9000000000e-01 0.0000000000e+00 0.0000000000e+00
3.0000000000e-01 0.0000000000e+00 0.0000000000e+00
3.1000000000e-01 0.0000000000e+00 0.0000000000e+00
3.2000000000e-01 0.0000000000e+00 0.0000000000e+00
3.3000000000e-01 0.0000000000e+00 0.0000000000e+00
3.4000000000e-01 0.0000000000e+00 0.0000000000e+00
3.5000000000e-01 0.0000000000e+00 0.0000000000e+00
3.6000000000e-01 0.0000000000e+00 0.0000000000e+00
3.7000000000e-01 0.0000000000e+00 0.0000000000e+00
3.8000000000e-01 0.0000000000e+00 0.0000000000e+00
3.9000000000e-01 0.0000000000e+00 0.0000000000e+00
4.0000000000e-01 0.0000000000e+00 0.0000000000e+00
4.1000000000e-01 0.0000000000e+00 0.0000000000e+00
4.2000000000e-01 0.0000000000e+00 0.0000000000e+00
4.3000000000e-01 0.0000000000e+00 0.0000000000e+00
4.4000000000e-01 0.0000000000e+00 0.0000000000e+00
4.5000000000e-01 0.0000000000e+00 0.0000000000e+00
4.6000000000e-01 0.0000000000e+00 0.0000000000e+00
4.7000000000e-01 0.0000000000e+00 0.0000000000e+00
4.8000000000e-01 0.0000000000e+00 0.0000000000e+00
4.9000000000e-01 0.0000000000e+00 0.0000000000e+00
5.0000000000e-01 0.0000000000e+00 0.0000000000e+00
5.1000000000e-01 0.0000000000e+00 0.0000000000e+00
5.2000000000e-01 0.0000000000e+00 0.0000000000e+00
5.3000000000e-01 0.0000000000e+00 0.0000000000e+00
5.4000000000e-01 0.0000000000e+00 0.0000000000e+00
5.5000000000e-01 0.0000000000e+00 0.0000000000e+00
5.6000000000e-01 0.0000000000e+00 0.0000000000e+00
5.7000000000e-01 0.0000000000e+00 0.0000000000e+00
5.8000000000e-01 0.0000000000e+00 0.0000000000e+00
5.9000000000e-01 0.0000000000e+00 0.0000000000e+00
6.0000000000e-01 0.0000000000e+00 0.0000000000e+00
6.1000000000e-01 0.0000000000e+00 0.0000000000e+00
6.2000000000e-01 0.0000000000e+00 0.0000000000e+00
6.3000000000e-01 0.0000000000e+00 0.0000000000e+00
6.4000000000e-01 0.0000000000e+00 0.0000000000e+00
6.5000000000e-01 0.0000000000e+00 0.0000000000e+00
6.6000000000e-01 0.0000000000e+00 0.0000000000e+00
6.7000000000e-01 0.0000000000e+00 0.0000000000e+00
6.8000000000e-01 0.0000000000e+00 0.0000000000e+00
6.9000000000e-01 0.0000000000e+00 0.0000000000e+00
7.0000000000e-01 0.0000000000e+00 0.0000000000e+00
7.1000000000e-01 0.0000000000e+00 0.0000000000e+00
7.2000000000e-01 0.0000000000e+00 0.0000000000e+00
7.3000000000e-01 0.0000000000e+00 0.0000000000e+00
7.4000000000e-01 0.0000000000e+00 0.0000000000e+00
7.5000000000e-01 0.0000000000e+00 0.0000000000e+00
7.6000000000e-01 0.0000000000e+00 0.0000000000e+00
7.7000000000e-01 0.0000000000e+00 0.0000000000e+00
7.8000000000e-01 0.0000000000e+00 0.0000000000e+00
7.9000000000e-01 0.0000000000e+00 0.0000000000e+00
8.0000000000e-01 0.0000000000e+00 0.0000000000e+00
8.1000000000e-01 0.0000000000e+00 0.0000000000e+00
8.2000000000e-01 0.0000000000e+00 0.0000000000e+00
8.3000000000e-01 0.0000000000e+00 0.0000000000e+00
8.4000000000e-01 0.0000000000e+00 0.0000000000e+00
8.5000000000e-01 0.0000000000e+00 0.0000000000e+00
8.6000000000e-01 0.0000000000e+00 0.0000000000e+00
8.7000000000e-01 0.0000000000e+00 0.0000000000e+00
8.8000000000e-01 0.0000000000e+00 0.0000000000e+00
8.9000000000e-01 0.0000000000e+00 0.0000000000e+00
9.0000000000e-01 0.0000000000e+00 0.0000000000e+00
9.1000000000e-01 0.0000000000e+00 0.0000000000e+00
9.2000000000e-01 0.0000000000e+00 0.0000000000e+00
9.3000000000e-01 0.0000000000e+00 0.0000000000e+00
9.4000000000e-01 0.0000000000e+00 0.0000000000e+00
9.5000000000e-01 0.0000000000e+00 0.0000000000e+00
9.6000000000e-01 0.0000000000e+00 0.0000000000e+00
9.7000000000e-01 0.0000000000e+00 0.0000000000e+00
9.8000000000e-01 0.0000000000e+00 0.0000000000e+00
9.9000000000e-01 0.0000000000e+00 0.0000000000e+00
1.0000000000e+00 0.0000000000e+00 0.0000000000e+00
0.0000000000e+00 1.0000000000e-03 0.0000000000e+00
1.0000000000e-02 1.0000000000e-03 0.0000000000e+00
2.0000000000e-02 1.0000000000e-03 0.0000000000e+00
3.0000000000e-02 1.0000000000e-03 0.0000000000e+00
4.0000000000e-02 1.0000000000e-03 0.0000000000e+00
5.0000000000e-02 1.0000000000e-03 0.0000000000e+00
6.0000000000e-02 1.0000000000e-03 0.0000000000e+00
7.0000000000e-02 1.0000000000e-03 0.0000000000e+00
8.0000000000e-02 1.0000000000e-03 0.0000000000e+00
9.0000000000e-02 1.0000000000e-03 0.0000000000e+00
1.0000000000e-01 1.0000000000e-03 0.0000000000e+00
1.1000000000e-01 1.0000000000e-03 0.0000000000e+00
1.2000000000e-01 1.0000000000e-03 0.0000000000e+00
1.3000000000e-01 1.0000000000e-03 0.0000000000e+00
1.4000000000e-01 1.0000000000e-03 0.0000000000e+00
1.5000000000e-01 1.0000000000e-03 0.0000000000e+00
1.6000000000e-01 1.0000000000e-03 0.0000000000e+00
1.7000000000e-01 1.0000000000e-03 0.0000000000e+00
1.8000000000e-01 1.0000000000e-03 0.0000000000e+00
1.9000000000e-01 1.0000000000e-03 0.0000000000e+00
2.0000000000e-01 1.0000000000e-03 0.0000000000e+00
2.1000000000e-01 1.0000000000e-03 0.0000000000e+00
2.2000000000e-01 1.0000000000e-03 0.0000000000e+00
2.3000000000e-01 1.0000000000e-03 0.0000000000e+00
2.4000000000e-01 1.0000000000e-03 0.0000000000e+00
2.5000000000e-01 1.0000000000e-03 0.0000000000e+00
2.6000000000e-01 1.0000000000e-03 0.0000000000e+00
2.7000000000e-01 1.0000000000e-03 0.0000000000e+00
2.8000000000e-01 1.0000000000e-03 0.0000000000e+00
2.9000000000e-01 1.0000000000e-03 0.0000000000e+00
3.0000000000e-01 1.0000000000e-03 0.0000000000e+00
3.1000000000e-01 1.0000000000e-03 0.0000000000e+00
3.2000000000e-01 1.0000000000e-03 0.0000000000e+00
3.3000000000e-01 1.0000000000e-03 0.0000000000e+00
3.4000000000e-01 1.0000000000e-03 0.0000000000e+00
3.5000000000e-01 1.0000000000e-03 0.0000000000e+00
3.6000000000e-01 1.0000000000e-03 0.0000000000e+00
3.7000000000e-01 1.0000000000e-03 0.0000000000e+00
3.8000000000e-01 1.0000000000e-03 0.0000000000e+00
3.9000000000e-01 1.0000000000e-03 0.0000000000e+00
4.0000000000e-01 1.0000000000e-03 0.0000000000e+00
4.1000000000e-01 1.0000000000e-03 0.0000000000e+00
4.2000000000e-01 1.0000000000e-03 0.0000000000e+00
4.3000000000e-01 1.0000000000e-03 0.0000000000e+00
4.4000000000e-01 1.0000000000e-03 0.0000000000e+00
4.5000000000e-01 1.0000000000e-03 0.0000000000e+00
4.6000000000e-01 1.0000000000e-03 0.0000000000e+00
4.7000000000e-01 1.0000000000e-03 0.0000000000e+00
4.8000000000e-01 1.0000000000e-03 0.0000000000e+00
4.9000000000e-01 1.0000000000e-03 0.0000000000e+00
5.0000000000e-01 1.0000000000e-03 0.0000000000e+00
5.1000000000e-01 1.0000000000e-03 0.0000000000e+00
5.2000000000e-01 1.0000000000e-03 0.0000000000e+00
5.3000000000e-01 1.0000000000e-03 0.0000000000e+00
5.4000000000e-01 1.0000000000e-03 0.0000000000e+00
5.5000000000e-01 1.0000000000e-03 0.0000000000e+00
5.6000000000e-01 1.0000000000e-03 0.0000000000e+00
5.7000000000e-01 1.0000000000e-03 0.0000000000e+00
5.8000000000e-01 1.0000000000e-03 0.0000000000e+00
5.9000000000e-01 1.0000000000e-03 0.0000000000e+00
6.0000000000e-01 1.0000000000e-03 0.0000000000e+00
6.1000000000e-01 1.0000000000e-03 0.0000000000e+00
6.2000000000e-01 1.0000000000e-03 0.0000000000e+00
6.3000000000e-01 1.0000000000e-03 0.0000000000e+00
6.4000000000e-01 1.0000000000e-03 0.0000000000e+00
6.5000000000e-01 1.0000000000e-03 0.0000000000e+00
6.6000000000e-01 1.0000000000e-03 0.0000000000e+00
6.7000000000e-01 1.0000000000e-03 0.0000000000e+00
6.8000000000e-01 1.0000000000e-03 0.0000000000e+00
6.9000000000e-01 1.0000000000e-03 0.0000000000e+00
7.0000000000e-01 1.0000000000e-03 0.0000000000e+00
7.1000000000e-01 1.0000000000e-03 0.0000000000e+00
7.2000000000e-01 1.0000000000e-03 0.0000000000e+00
7.3000000000e-01 1.0000000000e-03 0.0000000000e+00
7.4000000000e-01 1.0000000000e-03 0.0000000000e+00
7.5000000000e-01 1.0000000000e-03 0.0000000000e+00
7.6000000000e-01 1.0000000000e-03 0.0000000000e+00
7.7000000000e-01 1.0000000000e-03 0.0000000000e+00
7.8000000000e-01 1.0000000000e-03 0.0000000000e+00
7.9000000000e-01 1.0000000000e-03 0.0000000000e+00
8.0000000000e-01 1.0000000000e-03 0.0000000000e+00
8.1000000000e-01 1.0000000000e-03 0.0000000000e+00
8.2000000000e-01 1.0000000000e-03 0.0000000000e+00
8.3000000000e-01 1.0000000000e-03 0.0000000000e+00
8.4000000000e-01 1.0000000000e-03 0.0000000000e+00
8.5000000000e-01 1.0000000000e-03 0.0000000000e+00
8.6000000000e-01 1.0000000000e-03 0.0000000000e+00
8.7000000000e-01 1.0000000000e-03 0.0000000000e+00
8.8000000000e-01 1.0000000000e-03 0.0000000000e+00
8.9000000000e-01 1.0000000000e-03 0.0000000000e+00
9.0000000000e-01 1.0000000000e-03 0.0000000000e+00
9.1000000000e-01 1.0000000000e-03 0.0000000000e+00
9.2000000000e-01 1.0000000000e-03 0.0000000000e+00
[...]
CELL_DATA 1000

SCALARS massDensity float
LOOKUP_TABLE default
9.9999999988e+02
9.9999999979e+02
9.9999999947e+02
9.9999999856e+02
9.9999999605e+02
9.9999998932e+02
9.9999997168e+02
9.9999992668e+02
9.9999981484e+02
9.9999954434e+02
9.9999890805e+02
9.9999745331e+02
9.9999422296e+02
9.9998726135e+02
9.9997271302e+02
9.9994325639e+02
9.9988552394e+02
9.9977610231e+02
9.9957574926e+02
9.9922170685e+02
9.9861852713e+02
9.9762868199e+02
9.9606526388e+02
9.9368992052e+02
9.9021924037e+02
9.8534160554e+02
9.7874399002e+02
9.7014497508e+02
9.5932767132e+02
9.4616555720e+02
9.3063595174e+02
9.1281925582e+02
8.9288576862e+02
8.7107442420e+02
8.4766856107e+02
8.2297306939e+02
7.9729568844e+02
7.7093359568e+02
7.4416519872e+02
7.1724634619e+02
6.9040992972e+02
6.6386789442e+02
6.3781485073e+02
6.1243267227e+02
5.8789559492e+02
5.6437534654e+02
5.4204568205e+02
5.2108532361e+02
5.0167768180e+02
4.8400494092e+02
4.6823346744e+02
4.5448777632e+02
4.4281247127e+02
4.3312620897e+02
4.2517759743e+02
4.1852556249e+02
4.1254796522e+02
4.0650127587e+02
3.9963769923e+02
3.9134608739e+02
3.8128870555e+02
3.6948557513e+02
3.5631110501e+02
3.4240247177e+02
3.2851439237e+02
3.1536965426e+02
3.0354559564e+02
2.9341635903e+02
2.8515379034e+02
2.7877841180e+02
2.7422683997e+02
2.7133010917e+02
2.6949325524e+02
2.6695266517e+02
2.6019694848e+02
2.4506000225e+02
2.2019220984e+02
1.8997095720e+02
1.6241829787e+02
1.4326958768e+02
1.3280330139e+02
1.2805006378e+02
1.2613381062e+02
1.2541017137e+02
1.2514595327e+02
1.2505128503e+02
1.2501781056e+02
1.2500611116e+02
1.2500207009e+02
1.2500069166e+02
1.2500022776e+02
1.2500007386e+02
1.2500002357e+02
1.2500000740e+02
1.2500000229e+02
1.2500000070e+02
1.2500000021e+02
1.2500000007e+02
1.2500000002e+02
1.2500000001e+02
9.9999999988e+02
9.9999999979e+02
9.9999999947e+02
9.9999999856e+02
9.9999999605e+02
9.9999998932e+02
9.9999997168e+02
9.9999992668e+02
9.9999981484e+02
9.9999954434e+02
9.9999890805e+02
9.9999745331e+02
9.9999422296e+02
9.9998726135e+02
9.9997271302e+02
9.9994325639e+02
9.9988552394e+02
9.9977610231e+02
9.9957574926e+02
9.9922170685e+02
9.9861852713e+02
9.9762868199e+02
9.9606526388e+02
9.9368992052e+02
9.9021924037e+02
9.8534160554e+02
9.7874399002e+02
9.7014497508e+02
9.5932767132e+02
9.4616555720e+02
9.3063595174e+02
9.1281925582e+02
8.9288576862e+02
8.7107442420e+02
8.4766856107e+02
8.2297306939e+02
7.9729568844e+02
7.7093359568e+02
7.4416519872e+02
7.1724634619e+02
6.9040992972e+02
6.6386789442e+02
6.3781485073e+02
6.1243267227e+02
5.8789559492e+02
5.6437534654e+02
5.4204568205e+02
5.2108532361e+02
5.0167768180e+02
4.8400494092e+02
4.6823346744e+02
4.5448777632e+02
4.4281247127e+02
4.3312620897e+02
4.2517759743e+02
4.1852556249e+02
4.1254796522e+02
4.0650127587e+02
3.9963769923e+02
3.9134608739e+02
3.8128870555e+02
3.6948557513e+02
3.5631110501e+02
3.4240247177e+02
3.2851439237e+02
3.1536965426e+02
3.0354559564e+02
2.9341635903e+02
2.8515379034e+02
2.7877841180e+02
2.7422683997e+02
2.7133010917e+02
2.6949325524e+02
2.6695266517e+02
2.6019694848e+02
2.4506000225e+02
2.2019220984e+02
1.8997095720e+02
1.6241829787e+02
1.4326958768e+02
1.3280330139e+02
1.2805006378e+02
1.2613381062e+02
1.2541017137e+02
1.2514595327e+02
1.2505128503e+02
1.2501781056e+02
1.2500611116e+02
1.2500207009e+02
1.2500069166e+02
1.2500022776e+02
1.2500007386e+02
1.2500002357e+02
1.2500000740e+02
1.2500000229e+02
1.2500000070e+02
1.2500000021e+02
1.2500000007e+02
1.2500000002e+02
1.2500000001e+02
9.9999999988e+02
9.9999999979e+02
9.9999999947e+02
9.9999999856e+02
9.9999999605e+02
9.9999998932e+02
9.9999997168e+02
9.9999992668e+02
9.9999981484e+02
9.9999954434e+02
9.9999890805e+02
9.9999745331e+02
9.9999422296e+02
9.9998726135e+02
9.9997271302e+02
9.9994325639e+02
9.9988552394e+02
9.9977610231e+02
9.9957574926e+02
9.9922170685e+02
9.9861852713e+02
9.9762868199e+02
9.9606526388e+02
9.9368992052e+02
9.9021924037e+02
9.8534160554e+02
9.7874399002e+02
9.7014497508e+02
9.5932767132e+02
9.4616555720e+02
9.3063595174e+02
9.1281925582e+02
8.9288576862e+02
8.7107442420e+02
8.4766856107e+02
8.2297306939e+02
7.9729568844e+02
7.7093359568e+02
7.4416519872e+02
7.1724634619e+02
6.9040992972e+02
6.6386789442e+02
6.3781485073e+02
6.1243267227e+02
5.8789559492e+02
5.6437534654e+02
5.4204568205e+02
5.2108532361e+02
5.0167768180e+02
4.8400494092e+02
4.6823346744e+02
4.5448777632e+02
4.4281247127e+02
4.3312620897e+02
4.2517759743e+02
4.1852556249e+02
4.1254796522e+02
4.0650127587e+02
3.9963769923e+02
3.9134608739e+02
3.8128870555e+02
3.6948557513e+02
3.5631110501e+02
3.4240247177e+02
3.2851439237e+02
3.1536965426e+02
3.0354559564e+02
2.9341635903e+02
2.8515379034e+02
2.7877841180e+02
2.7422683997e+02
2.7133010917e+02
2.6949325524e+02
2.6695266517e+02
2.6019694848e+02
2.4506000225e+02
2.2019220984e+02
1.8997095720e+02
1.6241829787e+02
1.4326958768e+02
1.3280330139e+02
1.2805006378e+02
1.2613381062e+02
1.2541017137e+02
1.2514595327e+02
1.2505128503e+02
1.2501781056e+02
1.2500611116e+02
1.2500207009e+02
1.2500069166e+02
1.2500022776e+02
1.2500007386e+02
1.2500002357e+02
1.2500000740e+02
1.2500000229e+02
1.2500000070e+02
1.2500000021e+02
1.2500000007e+02
1.2500000002e+02
1.2500000001e+02
9.9999999988e+02
9.9999999979e+02
9.9999999947e+02
9.9999999856e+02
9.9999999605e+02
9.9999998932e+02
9.9999997168e+02
9.9999992668e+02
9.9999981484e+02
9.9999954434e+02
9.9999890805e+02
9.9999745331e+02
9.9999422296e+02
9.9998726135e+02
9.9997271302e+02
9.9994325639e+02
9.9988552394e+02
9.9977610231e+02
9.9957574926e+02
9.9922170685e+02
9.9861852713e+02
9.9762868199e+02
9.9606526388e+02
9.9368992052e+02
9.9021924037e+02
9.8534160554e+02
9.7874399002e+02
9.7014497508e+02
9.5932767132e+02
9.4616555720e+02
9.3063595174e+02
9.1281925582e+02
8.9288576862e+02
8.7107442420e+02
8.4766856107e+02
8.2297306939e+02
7.9729568844e+02
7.7093359568e+02
7.4416519872e+02
7.1724634619e+02
6.9040992972e+02
6.6386789442e+02
6.3781485073e+02
6.1243267227e+02
5.8789559492e+02
5.6437534654e+02
5.4204568205e+02
5.2108532361e+02
5.0167768180e+02
4.8400494092e+02
4.6823346744e+02
4.5448777632e+02
4.4281247127e+02
4.3312620897e+02
4.2517759743e+02
4.1852556249e+02
4.1254796522e+02
4.0650127587e+02
3.9963769923e+02
3.9134608739e+02
3.8128870555e+02
3.6948557513e+02
3.5631110501e+02
3.4240247177e+02
3.2851439237e+02
3.1536965426e+02
3.0354559564e+02
2.9341635903e+02
2.8515379034e+02
2.7877841180e+02
2.7422683997e+02
2.7133010917e+02
2.6949325524e+02
2.6695266517e+02
2.6019694848e+02
2.4506000225e+02
2.2019220984e+02
1.8997095720e+02
1.6241829787e+02
1.4326958768e+02
1.3280330139e+02
1.2805006378e+02
1.2613381062e+02
1.2541017137e+02
1.2514595327e+02
1.2505128503e+02
1.2501781056e+02
1.2500611116e+02
1.2500207009e+02
1.2500069166e+02
1.2500022776e+02
1.2500007386e+02
1.2500002357e+02
1.2500000740e+02
1.2500000229e+02
1.2500000070e+02
1.2500000021e+02
1.2500000007e+02
1.2500000002e+02
1.2500000001e+02
9.9999999988e+02
9.9999999979e+02
9.9999999947e+02
9.9999999856e+02
9.9999999605e+02
9.9999998932e+02
9.9999997168e+02
9.9999992668e+02
9.9999981484e+02
9.9999954434e+02
9.9999890805e+02
9.9999745331e+02
9.9999422296e+02
9.9998726135e+02
9.9997271302e+02
9.9994325639e+02
9.9988552394e+02
9.9977610231e+02
9.9957574926e+02
9.9922170685e+02
9.9861852713e+02
9.9762868199e+02
9.9606526388e+02
9.9368992052e+02
9.9021924037e+02
9.8534160554e+02
9.7874399002e+02
9.7014497508e+02
9.5932767132e+02
9.4616555720e+02
9.3063595174e+02
9.1281925582e+02
8.9288576862e+02
8.7107442420e+02
8.4766856107e+02
8.2297306939e+02
7.9729568844e+02
7.7093359568e+02
7.4416519872e+02
7.1724634619e+02
6.9040992972e+02
6.6386789442e+02
6.3781485073e+02
6.1243267227e+02
5.8789559492e+02
5.6437534654e+02
5.4204568205e+02
5.2108532361e+02
5.0167768180e+02
4.8400494092e+02
4.6823346744e+02
4.5448777632e+02
4.4281247127e+02
4.3312620897e+02
4.2517759743e+02
4.1852556249e+02
4.1254796522e+02
4.0650127587e+02
3.9963769923e+02
3.9134608739e+02
3.8128870555e+02
3.6948557513e+02
3.5631110501e+02
3.4240247177e+02
3.2851439237e+02
3.1536965426e+02
3.0354559564e+02
2.9341635903e+02
2.8515379034e+02
2.7877841180e+02
2.7422683997e+02
2.7133010917e+02
2.6949325524e+02
2.6695266517e+02
2.6019694848e+02
2.4506000225e+02
2.2019220984e+02
1.8997095720e+02
1.6241829787e+02
1.4326958768e+02
1.3280330139e+02
1.2805006378e+02
1.2613381062e+02
1.2541017137e+02
1.2514595327e+02
1.2505128503e+02
1.2501781056e+02
1.2500611116e+02
1.2500207009e+02
1.2500069166e+02
1.2500022776e+02
1.2500007386e+02
1.2500002357e+02
1.2500000740e+02
1.2500000229e+02
1.2500000070e+02
1.2500000021e+02
1.2500000007e+02
1.2500000002e+02
1.2500000001e+02
9.9999999988e+02
9.9999999979e+02
9.9999999947e+02
9.9999999856e+02
9.9999999605e+02
9.9999998932e+02
9.9999997168e+02
9.9999992668e+02
9.9999981484e+02
9.9999954434e+02
9.9999890805e+02
9.9999745331e+02
9.9999422296e+02
9.9998726135e+02
9.9997271302e+02
9.9994325639e+02
9.9988552394e+02
9.9977610231e+02
9.9957574926e+02
9.9922170685e+02
9.9861852713e+02
9.9762868199e+02
9.9606526388e+02
9.9368992052e+02
9.9021924037e+02
9.8534160554e+02
9.7874399002e+02
9.7014497508e+02
9.5932767132e+02
9.4616555720e+02
9.3063595174e+02
9.1281925582e+02
8.9288576862e+02
8.7107442420e+02
8.4766856107e+02
8.2297306939e+02
7.9729568844e+02
7.7093359568e+02
7.4416519872e+02
7.1724634619e+02
6.9040992972e+02
6.6386789442e+02
6.3781485073e+02
6.1243267227e+02
5.8789559492e+02
5.6437534654e+02
5.4204568205e+02
5.2108532361e+02
5.0167768180e+02
4.8400494092e+02
4.6823346744e+02
4.5448777632e+02
4.4281247127e+02
4.3312620897e+02
4.2517759743e+02
4.1852556249e+02
4.1254796522e+02
4.0650127587e+02
3.9963769923e+02
3.9134608739e+02
3.8128870555e+02
3.6948557513e+02
3.5631110501e+02
3.4240247177e+02
3.2851439237e+02
3.1536965426e+02
3.0354559564e+02
2.9341635903e+02
2.8515379034e+02
2.7877841180e+02
2.7422683997e+02
2.7133010917e+02
2.6949325524e+02
2.6695266517e+02
2.6019694848e+02
2.4506000225e+02
2.2019220984e+02
1.8997095720e+02
1.6241829787e+02
1.4326958768e+02
1.3280330139e+02
1.2805006378e+02
1.2613381062e+02
1.2541017137e+02
1.2514595327e+02
1.2505128503e+02
1.2501781056e+02
1.2500611116e+02
1.2500207009e+02
1.2500069166e+02
1.2500022776e+02
1.2500007386e+02
1.2500002357e+02
1.2500000740e+02
1.2500000229e+02
1.2500000070e+02
1.2500000021e+02
1.2500000007e+02
1.2500000002e+02
1.2500000001e+02
9.9999999988e+02
9.9999999979e+02
9.9999999947e+02
9.9999999856e+02
9.9999999605e+02
9.9999998932e+02
9.9999997168e+02
9.9999992668e+02
9.9999981484e+02
9.9999954434e+02
9.9999890805e+02
9.9999745331e+02
9.9999422296e+02
9.9998726135e+02
9.9997271302e+02
9.9994325639e+02
9.9988552394e+02
9.9977610231e+02
9.9957574926e+02
9.9922170685e+02
9.9861852713e+02
9.9762868199e+02
9.9606526388e+02
9.9368992052e+02
9.9021924037e+02
9.8534160554e+02
9.7874399002e+02
9.7014497508e+02
9.5932767132e+02
9.4616555720e+02
9.3063595174e+02
9.1281925582e+02
8.9288576862e+02
8.7107442420e+02
8.4766856107e+02
8.2297306939e+02
7.9729568844e+02
7.7093359568e+02
7.4416519872e+02
7.1724634619e+02
6.9040992972e+02
6.6386789442e+02
6.3781485073e+02
6.1243267227e+02
5.8789559492e+02
5.6437534654e+02
5.4204568205e+02
5.2108532361e+02
5.0167768180e+02
4.8400494092e+02
4.6823346744e+02
4.5448777632e+02
4.4281247127e+02
4.3312620897e+02
4.2517759743e+02
4.1852556249e+02
4.1254796522e+02
4.0650127587e+02
3.9963769923e+02
3.9134608739e+02
3.8128870555e+02
3.6948557513e+02
3.5631110501e+02
3.4240247177e+02
3.2851439237e+02
3.1536965426e+02
3.0354559564e+02
2.9341635903e+02
2.8515379034e+02
2.7877841180e+02
2.7422683997e+02
2.7133010917e+02
2.6949325524e+02
2.6695266517e+02
2.6019694848e+02
2.4506000225e+02
2.2019220984e+02
1.8997095720e+02
1.6241829787e+02
1.4326958768e+02
1.3280330139e+02
1.2805006378e+02
1.2613381062e+02
1.2541017137e+02
1.2514595327e+02
1.2505128503e+02
1.2501781056e+02
1.2500611116e+02
1.2500207009e+02
1.2500069166e+02
1.2500022776e+02
1.2500007386e+02
1.2500002357e+02
1.2500000740e+02
1.2500000229e+02
1.2500000070e+02
1.2500000021e+02
1.2500000007e+02
1.2500000002e+02
1.2500000001e+02
9.9999999988e+02
9.9999999979e+02
9.9999999947e+02
9.9999999856e+02
9.9999999605e+02
9.9999998932e+02
9.9999997168e+02
9.9999992668e+02
9.9999981484e+02
9.9999954434e+02
9.9999890805e+02
9.9999745331e+02
9.9999422296e+02
9.9998726135e+02
9.9997271302e+02
9.9994325639e+02
9.9988552394e+02
9.9977610231e+02
9.9957574926e+02
9.9922170685e+02
9.9861852713e+02
9.9762868199e+02
9.9606526388e+02
9.9368992052e+02
9.9021924037e+02
9.8534160554e+02
9.7874399002e+02
9.7014497508e+02
9.5932767132e+02
9.4616555720e+02
9.3063595174e+02
9.1281925582e+02
8.9288576862e+02
8.7107442420e+02
8.4766856107e+02
8.2297306939e+02
7.9729568844e+02
7.7093359568e+02
7.4416519872e+02
7.1724634619e+02
6.9040992972e+02
6.6386789442e+02
6.3781485073e+02
6.1243267227e+02
5.8789559492e+02
5.6437534654e+02
5.4204568205e+02
5.2108532361e+02
5.0167768180e+02
4.8400494092e+02
4.6823346744e+02
4.5448777632e+02
4.4281247127e+02
4.3312620897e+02
4.2517759743e+02
4.1852556249e+02
4.1254796522e+02
4.0650127587e+02
3.9963769923e+02
3.9134608739e+02
3.8128870555e+02
3.6948557513e+02
3.5631110501e+02
3.4240247177e+02
3.2851439237e+02
3.1536965426e+02
3.0354559564e+02
2.9341635903e+02
2.8515379034e+02
2.7877841180e+02
2.7422683997e+02
2.7133010917e+02
2.6949325524e+02
2.6695266517e+02
2.6019694848e+02
2.4506000225e+02
2.2019220984e+02
1.8997095720e+02
1.6241829787e+02
1.4326958768e+02
1.3280330139e+02
1.2805006378e+02
1.2613381062e+02
1.2541017137e+02
1.2514595327e+02
1.2505128503e+02
1.2501781056e+02
1.2500611116e+02
1.2500207009e+02
1.2500069166e+02
1.2500022776e+02
1.2500007386e+02
1.2500002357e+02
1.2500000740e+02
1.2500000229e+02
1.2500000070e+02
1.2500000021e+02
1.2500000007e+02
1.2500000002e+02
1.2500000001e+02
9.9999999988e+02
9.9999999979e+02
9.9999999947e+02
9.9999999856e+02
9.9999999605e+02
9.9999998932e+02
9.9999997168e+02
9.9999992668e+02
9.9999981484e+02
9.9999954434e+02
9.9999890805e+02
9.9999745331e+02
9.9999422296e+02
9.9998726135e+02
9.9997271302e+02
9.9994325639e+02
9.9988552394e+02
9.9977610231e+02
9.9957574926e+02
9.9922170685e+02
9.9861852713e+02
9.9762868199e+02
9.9606526388e+02
9.9368992052e+02
9.9021924037e+02
9.8534160554e+02
9.7874399002e+02
9.7014497508e+02
9.5932767132e+02
9.4616555720e+02
9.3063595174e+02
9.1281925582e+02
8.9288576862e+02
8.7107442420e+02
8.4766856107e+02
8.2297306939e+02
7.9729568844e+02
7.7093359568e+02
7.4416519872e+02
7.1724634619e+02
6.9040992972e+02
6.6386789442e+02
6.3781485073e+02
6.1243267227e+02
5.8789559492e+02
5.6437534654e+02
5.4204568205e+02
5.2108532361e+02
5.0167768180e+02
4.8400494092e+02
4.6823346744e+02
4.5448777632e+02
4.4281247127e+02
4.3312620897e+02
4.2517759743e+02
4.1852556249e+02
4.1254796522e+02
4.0650127587e+02
3.9963769923e+02
3.9134608739e+02
3.8128870555e+02
3.6948557513e+02
3.5631110501e+02
3.4240247177e+02
3.2851439237e+02
3.1536965426e+02
3.0354559564e+02
2.9341635903e+02
2.8515379034e+02
2.7877841180e+02
2.7422683997e+02
2.7133010917e+02
2.6949325524e+02
2.6695266517e+02
2.6019694848e+02
2.4506000225e+02
2.2019220984e+02
1.8997095720e+02
1.6241829787e+02
1.4326958768e+02
1.3280330139e+02
1.2805006378e+02
1.2613381062e+02
1.2541017137e+02
1.2514595327e+02
1.2505128503e+02
1.2501781056e+02
1.2500611116e+02
1.2500207009e+02
1.2500069166e+02
1.2500022776e+02
1.2500007386e+02
1.2500002357e+02
1.2500000740e+02
1.2500000229e+02
1.2500000070e+02
1.2500000021e+02
1.2500000007e+02
1.2500000002e+02
1.2500000001e+02
9.9999999988e+02
9.9999999979e+02
9.9999999947e+02
9.9999999856e+02
9.9999999605e+02
9.9999998932e+02
9.9999997168e+02
9.9999992668e+02
9.9999981484e+02
9.9999954434e+02
9.9999890805e+02
9.9999745331e+02
9.9999422296e+02
9.9998726135e+02
9.9997271302e+02
9.9994325639e+02
9.9988552394e+02
9.9977610231e+02
9.9957574926e+02
9.9922170685e+02
9.9861852713e+02
9.9762868199e+02
9.9606526388e+02
9.9368992052e+02
9.9021924037e+02
9.8534160554e+02
9.7874399002e+02
9.7014497508e+02
9.5932767132e+02
9.4616555720e+02
9.3063595174e+02
9.1281925582e+02
8.9288576862e+02
8.7107442420e+02
8.4766856107e+02
8.2297306939e+02
7.9729568844e+02
7.7093359568e+02
7.4416519872e+02
7.1724634619e+02
6.9040992972e+02
6.6386789442e+02
6.3781485073e+02
6.1243267227e+02
5.8789559492e+02
5.6437534654e+02
5.4204568205e+02
5.2108532361e+02
5.0167768180e+02
4.8400494092e+02
4.6823346744e+02
4.5448777632e+02
4.4281247127e+02
4.3312620897e+02
4.2517759743e+02
4.1852556249e+02
4.1254796522e+02
4.0650127587e+02
3.9963769923e+02
3.9134608739e+02
3.8128870555e+02
3.6948557513e+02
3.5631110501e+02
3.4240247177e+02
3.2851439237e+02
3.1536965426e+02
3.0354559564e+02
2.9341635903e+02
2.8515379034e+02
2.7877841180e+02
2.7422683997e+02
2.7133010917e+02
2.6949325524e+02
2.6695266517e+02
2.6019694848e+02
2.4506000225e+02
2.2019220984e+02
1.8997095720e+02
1.6241829787e+02
1.4326958768e+02
1.3280330139e+02
1.2805006378e+02
1.2613381062e+02
1.2541017137e+02
1.2514595327e+02
1.2505128503e+02
1.2501781056e+02
1.2500611116e+02
1.2500207009e+02
1.2500069166e+02
1.2500022776e+02
1.2500007386e+02
1.2500002357e+02
1.2500000740e+02
1.2500000229e+02
1.2500000070e+02
1.2500000021e+02
1.2500000007e+02
1.2500000002e+02
1.2500000001e+02

SCALARS molarDensity float
LOOKUP_TABLE default
1.2977624131e+05
1.2977624130e+05
1.2977624126e+05
1.2977624114e+05
1.2977624081e+05
1.2977623994e+05
1.2977623765e+05
1.2977623181e+05
1.2977621730e+05
1.2977618219e+05
1.2977609962e+05
1.2977591083e+05
1.2977549160e+05
1.2977458815e+05
1.2977270013e+05
1.2976887735e+05
1.2976138505e+05
1.2974718473e+05
1.2972118366e+05
1.2967523737e+05
1.2959695897e+05
1.2946850059e+05
1.2926560606e+05
1.2895734293e+05
1.2850693110e+05
1.2787392999e+05
1.2701771625e+05
1.2590176841e+05
1.2449793938e+05
1.2278980969e+05
1.2077443586e+05
1.1846225203e+05
1.1587535899e+05
1.1304476469e+05
1.1000723975e+05
1.0680235166e+05
1.0347003767e+05
1.0004886436e+05
9.6574962417e+04
9.3081534914e+04
8.9598805653e+04
8.6154280075e+04
8.2773213991e+04
7.9479210272e+04
7.6294880601e+04
7.3242511172e+04
7.0344651244e+04
6.7624494709e+04
6.5105843902e+04
6.2812342016e+04
6.0765579467e+04
5.8981715340e+04
5.7466538134e+04
5.6209491420e+04
5.5177950491e+04
5.4314674399e+04
5.3538924294e+04
5.2754207677e+04
5.1863478498e+04
5.0787424280e+04
4.9482215067e+04
4.7950449165e+04
4.6240715951e+04
4.4435705807e+04
4.2633363063e+04
4.0927488358e+04
3.9393006474e+04
3.8078472219e+04
3.7006187111e+04
3.6178814447e+04
3.5588128562e+04
3.5212201727e+04
3.4973821728e+04
3.4644113498e+04
3.3767381978e+04
3.1802965992e+04
2.8575717362e+04
2.4653716786e+04
2.1078036220e+04
1.8592988586e+04
1.7234713290e+04
1.6617855979e+04
1.6369171847e+04
1.6275260664e+04
1.6240971432e+04
1.6228685744e+04
1.6224341553e+04
1.6222823249e+04
1.6222298815e+04
1.6222119927e+04
1.6222059723e+04
1.6222039751e+04
1.6222033225e+04
1.6222031126e+04
1.6222030463e+04
1.6222030256e+04
1.6222030193e+04
1.6222030174e+04
1.6222030169e+04
1.6222030167e+04
1.2977624131e+05
1.2977624130e+05
1.2977624126e+05
1.2977624114e+05
1.2977624081e+05
1.2977623994e+05
1.2977623765e+05
1.2977623181e+05
1.2977621730e+05
1.2977618219e+05
1.2977609962e+05
1.2977591083e+05
1.2977549160e+05
1.2977458815e+05
1.2977270013e+05
1.2976887735e+05
1.2976138505e+05
1.2974718473e+05
1.2972118366e+05
1.2967523737e+05
1.2959695897e+05
1.2946850059e+05
1.2926560606e+05
1.2895734293e+05
1.2850693110e+05
1.2787392999e+05
1.2701771625e+05
1.2590176841e+05
1.2449793938e+05
1.2278980969e+05
1.2077443586e+05
1.1846225203e+05
1.1587535899e+05
1.1304476469e+05
1.1000723975e+05
1.0680235166e+05
1.0347003767e+05
1.0004886436e+05
9.6574962417e+04
9.3081534914e+04
8.9598805653e+04
8.6154280075e+04
8.2773213991e+04
7.9479210272e+04
7.6294880601e+04
7.3242511172e+04
7.0344651244e+04
6.7624494709e+04
6.5105843902e+04
6.2812342016e+04
6.0765579467e+04
5.8981715340e+04
5.7466538134e+04
5.6209491420e+04
5.5177950491e+04
5.4314674399e+04
5.3538924294e+04
5.2754207677e+04
5.1863478498e+04
5.0787424280e+04
4.9482215067e+04
4.7950449165e+04
4.6240715951e+04
4.4435705807e+04
4.2633363063e+04
4.0927488358e+04
3.9393006474e+04
3.8078472219e+04
3.7006187111e+04