# vtk DataFile Version 2.0
Blank
ASCII
DATASET STRUCTURED_GRID
DIMENSIONS 101 11 2
POINTS 2222 float
0.0000000000e+00 0.0000000000e+00 0.0000000000e+00
1.0000000000e-02 0.0000000000e+00 0.0000000000e+00
2.0000000000e-02 0.0000000000e+00 0.0000000000e+00
3.0000000000e-02 0.0000000000e+00 0.0000000000e+00
4.0000000000e-02 0.0000000000e+00 0.0000000000e+00
5.0000000000e-02 0.0000000000e+00 0.0000000000e+00
6.0000000000e-02 0.0000000000e+00 0.0000000000e+00
7.0000000000e-02 0.0000000000e+00 0.0000000000e+00
8.0000000000e-02 0.0000000000e+00 0.0000000000e+00
9.0000000000e-02 0.0000000000e+00 0.0000000000e+00
1.0000000000e-01 0.0000000000e+00 0.0000000000e+00
1.1000000000e-01 0.0000000000e+00 0.0000000000e+00
1.2000000000e-01 0.0000000000e+00 0.0000000000e+00
1.3000000000e-01 0.0000000000e+00 0.0000000000e+00
1.4000000000e-01 0.0000000000e+00 0.0000000000e+00
1.5000000000e-01 0.0000000000e+00 0.0000000000e+00
1.6000000000e-01 0.0000000000e+00 0.0000000000e+00
1.7000000000e-01 0.0000000000e+00 0.0000000000e+00
1.8000000000e-01 0.0000000000e+00 0.0000000000e+00
1.9000000000e-01 0.0000000000e+00 0.0000000000e+00
2.0000000000e-01 0.0000000000e+00 0.0000000000e+00
2.1000000000e-01 0.0000000000e+00 0.0000000000e+00
2.2000000000e-01 0.0000000000e+00 0.0000000000e+00
2.3000000000e-01 0.0000000000e+00 0.0000000000e+00
2.4000000000e-01 0.0000000000e+00 0.0000000000e+00
2.5000000000e-01 0.0000000000e+00 0.0000000000e+00
2.6000000000e-01 0.0000000000e+00 0.0000000000e+00
2.7000000000e-01 0.0000000000e+00 0.0000000000e+00
2.8000000000e-01 0.0000000000e+00 0.0000000000e+00
2.9000000000e-01 0.0000000000e+00 0.0000000000e+00
3.0000000000e-01 0.0000000000e+00 0.0000000000e+00
3.1000000000e-01 0.0000000000e+00 0.0000000000e+00
3.2000000000e-01 0.0000000000e+00 0.0000000000e+00
3.3000000000e-01 0.0000000000e+00 0.0000000000e+00
3.4000000000e-01 0.0000000000e+00 0.0000000000e+00
3.5000000000e-01 0.0000000000e+00 0.0000000000e+00
3.6000000000e-01 0.0000000000e+00 0.0000000000e+00
3.7000000000e-01 0.0000000000e+00 0.0000000000e+00
3.8000000000e-01 0.0000000000e+00 0.0000000000e+00
3.9000000000e-01 0.0000000000e+00 0.0000000000e+00
4.0000000000e-01 0.0000000000e+00 0.0000000000e+00
4.1000000000e-01 0.0000000000e+00 0.0000000000e+00
4.2000000000e-01 0.0000000000e+00 0.0000000000e+00
4.3000000000e-01 0.0000000000e+00 0.0000000000e+00
4.4000000000e-01 0.0000000000e+00 0.0000000000e+00
4.5000000000e-01 0.0000000000e+00 0.0000000000e+00
4.6000000000e-01 0.0000000000e+00 0.0000000000e+00
4.7000000000e-01 0.0000000000e+00 0.0000000000e+00
4.8000000000e-01 0.0000000000e+00 0.0000000000e+00
4.9000000000e-01 0.0000000000e+00 0.0000000000e+00
5.0000000000e-01 0.0000000000e+00 0.0000000000e+00
5.1000000000e-01 0.0000000000e+00 0.0000000000e+00
5.2000000000e-01 0.0000000000e+00 0.0000000000e+00
5.3000000000e-01 0.0000000000e+00 0.0000000000e+00
5.4000000000e-01 0.0000000000e+00 0.0000000000e+00
5.5000000000e-01 0.0000000000e+00 0.0000000000e+00
5.6000000000e-01 0.0000000000e+00 0.0000000000e+00
5.7000000000e-01 0.0000000000e+00 0.0000000000e+00
5.8000000000e-01 0.0000000000e+00 0.0000000000e+00
5.9000000000e-01 0.0000000000e+00 0.0000000000e+00
6.0000000000e-01 0.0000000000e+00 0.0000000000e+00
6.1000000000e-01 0.0000000000e+00 0.0000000000e+00
6.2000000000e-01 0.0000000000e+00 0.0000000000e+00
6.3000000000e-01 0.0000000000e+00 0.0000000000e+00
6.4000000000e-01 0.0000000000e+00 0.0000000000e+00
6.5000000000e-01 0.0000000000e+00 0.0000000000e+00
6.6000000000e-01 0.0000000000e+00 0.0000000000e+00
6.7000000000e-01 0.0000000000e+00 0.0000000000e+00
6.8000000000e-01 0.0000000000e+00 0.0000000000e+00
6.9000000000e-01 0.0000000000e+00 0.0000000000e+00
7.0000000000e-01 0.0000000000e+00 0.0000000000e+00
7.1000000000e-01 0.0000000000e+00 0.0000000000e+00
7.2000000000e-01 0.0000000000e+00 0.0000000000e+00
7.3000000000e-01 0.0000000000e+00 0.0000000000e+00
7.4000000000e-01 0.0000000000e+00 0.0000000000e+00
7.5000000000e-01 0.0000000000e+00 0.0000000000e+00
7.6000000000e-01 0.0000000000e+00 0.0000000000e+00
7.7000000000e-01 0.0000000000e+00 0.0000000000e+00
7.8000000000e-01 0.0000000000e+00 0.0000000000e+00
7.9000000000e-01 0.0000000000e+00 0.0000000000e+00
8.0000000000e-01 0.0000000000e+00 0.0000000000e+00
8.1000000000e-01 0.0000000000e+00 0.0000000000e+00
8.2000000000e-01 0.0000000000e+00 0.0000000000e+00
8.3000000000e-01 0.0000000000e+00 0.0000000000e+00
8.4000000000e-01 0.0000000000e+00 0.0000000000e+00
8.5000000000e-01 0.0000000000e+00 0.0000000000e+00
8.6000000000e-01 0.0000000000e+00 0.0000000000e+00
8.7000000000e-01 0.0000000000e+00 0.0000000000e+00
8.8000000000e-01 0.0000000000e+00 0.0000000000e+00
8.9000000000e-01 0.0000000000e+00 0.0000000000e+00
9.0000000000e-01 0.0000000000e+00 0.0000000000e+00
9.1000000000e-01 0.0000000000e+00 0.0000000000e+00
9.2000000000e-01 0.0000000000e+00 0.0000000000e+00
9.3000000000e-01 0.0000000000e+00 0.0000000000e+00
9.4000000000e-01 0.0000000000e+00 0.0000000000e+00
9.5000000000e-01 0.0000000000e+00 0.0000000000e+00
9.6000000000e-01 0.0000000000e+00 0.0000000000e+00
9.7000000000e-01 0.0000000000e+00 0.0000000000e+00
9.8000000000e-01 0.0000000000e+00 0.0000000000e+00
9.9000000000e-01 0.0000000000e+00 0.0000000000e+00
1.0000000000e+00 0.0000000000e+00 0.0000000000e+00
0.0000000000e+00 1.0000000000e-03 0.0000000000e+00
1.0000000000e-02 1.0000000000e-03 0.0000000000e+00
2.0000000000e-02 1.0000000000e-03 0.0000000000e+00
3.0000000000e-02 1.0000000000e-03 0.0000000000e+00
4.0000000000e-02 1.0000000000e-03 0.0000000000e+00
5.0000000000e-02 1.0000000000e-03 0.0000000000e+00
6.0000000000e-02 1.0000000000e-03 0.0000000000e+00
7.0000000000e-02 1.0000000000e-03 0.0000000000e+00
8.0000000000e-02 1.0000000000e-03 0.0000000000e+00
9.0000000000e-02 1.0000000000e-03 0.0000000000e+00
1.0000000000e-01 1.0000000000e-03 0.0000000000e+00
1.1000000000e-01 1.0000000000e-03 0.0000000000e+00
1.2000000000e-01 1.0000000000e-03 0.0000000000e+00
1.3000000000e-01 1.0000000000e-03 0.0000000000e+00
1.4000000000e-01 1.0000000000e-03 0.0000000000e+00
1.5000000000e-01 1.0000000000e-03 0.0000000000e+00
1.6000000000e-01 1.0000000000e-03 0.0000000000e+00
1.7000000000e-01 1.0000000000e-03 0.0000000000e+00
1.8000000000e-01 1.0000000000e-03 0.0000000000e+00
1.9000000000e-01 1.0000000000e-03 0.0000000000e+00
2.0000000000e-01 1.0000000000e-03 0.0000000000e+00
2.1000000000e-01 1.0000000000e-03 0.0000000000e+00
2.2000000000e-01 1.0000000000e-03 0.0000000000e+00
2.3000000000e-01 1.0000000000e-03 0.0000000000e+00
2.4000000000e-01 1.0000000000e-03 0.0000000000e+00
2.5000000000e-01 1.0000000000e-03 0.0000000000e+00
2.6000000000e-01 1.0000000000e-03 0.0000000000e+00
2.7000000000e-01 1.0000000000e-03 0.0000000000e+00
2.8000000000e-01 1.0000000000e-03 0.0000000000e+00
2.9000000000e-01 1.0000000000e-03 0.0000000000e+00
3.0000000000e-01 1.0000000000e-03 0.0000000000e+00
3.1000000000e-01 1.0000000000e-03 0.0000000000e+00
3.2000000000e-01 1.0000000000e-03 0.0000000000e+00
3.3000000000e-01 1.0000000000e-03 0.0000000000e+00
3.4000000000e-01 1.0000000000e-03 0.0000000000e+00
3.5000000000e-01 1.0000000000e-03 0.0000000000e+00
3.6000000000e-01 1.0000000000e-03 0.0000000000e+00
3.7000000000e-01 1.0000000000e-03 0.0000000000e+00
3.8000000000e-01 1.0000000000e-03 0.0000000000e+00
3.9000000000e-01 1.0000000000e-03 0.0000000000e+00
4.0000000000e-01 1.0000000000e-03 0.0000000000e+00
4.1000000000e-01 1.0000000000e-03 0.0000000000e+00
4.2000000000e-01 1.0000000000e-03 0.0000000000e+00
4.3000000000e-01 1.0000000000e-03 0.0000000000e+00
4.4000000000e-01 1.0000000000e-03 0.0000000000e+00
4.5000000000e-01 1.0000000000e-03 0.0000000000e+00
4.6000000000e-01 1.0000000000e-03 0.0000000000e+00
4.7000000000e-01 1.0000000000e-03 0.0000000000e+00
4.8000000000e-01 1.0000000000e-03 0.0000000000e+00
4.9000000000e-01 1.0000000000e-03 0.0000000000e+00
5.0000000000e-01 1.0000000000e-03 0.0000000000e+00
5.1000000000e-01 1.0000000000e-03 0.0000000000e+00
5.2000000000e-01 1.0000000000e-03 0.0000000000e+00
5.3000000000e-01 1.0000000000e-03 0.0000000000e+00
5.4000000000e-01 1.0000000000e-03 0.0000000000e+00
5.5000000000e-01 1.0000000000e-03 0.0000000000e+00
5.6000000000e-01 1.0000000000e-03 0.0000000000e+00
5.7000000000e-01 1.0000000000e-03 0.0000000000e+00
5.8000000000e-01 1.0000000000e-03 0.0000000000e+00
5.9000000000e-01 1.0000000000e-03 0.0000000000e+00
6.0000000000e-01 1.0000000000e-03 0.0000000000e+00
6.1000000000e-01 1.0000000000e-03 0.0000000000e+00
6.2000000000e-01 1.0000000000e-03 0.0000000000e+00
6.3000000000e-01 1.0000000000e-03 0.0000000000e+00
6.4000000000e-01 1.0000000000e-03 0.0000000000e+00
6.5000000000e-01 1.0000000000e-03 0.0000000000e+00
6.6000000000e-01 1.0000000000e-03 0.0000000000e+00
6.7000000000e-01 1.0000000000e-03 0.0000000000e+00
6.8000000000e-01 1.0000000000e-03 0.0000000000e+00
6.9000000000e-01 1.0000000000e-03 0.0000000000e+00
7.0000000000e-01 1.0000000000e-03 0.0000000000e+00
7.1000000000e-01 1.0000000000e-03 0.0000000000e+00
7.2000000000e-01 1.0000000000e-03 0.0000000000e+00
7.3000000000e-01 1.0000000000e-03 0.0000000000e+00
7.4000000000e-01 1.0000000000e-03 0.0000000000e+00
7.5000000000e-01 1.0000000000e-03 0.0000000000e+00
7.6000000000e-01 1.0000000000e-03 0.0000000000e+00
7.7000000000e-01 1.0000000000e-03 0.0000000000e+00
7.8000000000e-01 1.0000000000e-03 0.0000000000e+00
7.9000000000e-01 1.0000000000e-03 0.0000000000e+00
8.0000000000e-01 1.0000000000e-03 0.0000000000e+00
8.1000000000e-01 1.0000000000e-03 0.0000000000e+00
8.2000000000e-01 1.0000000000e-03 0.0000000000e+00
8.3000000000e-01 1.0000000000e-03 0.0000000000e+00
8.4000000000e-01 1.0000000000e-03 0.0000000000e+00
8.5000000000e-01 1.0000000000e-03 0.0000000000e+00
8.6000000000e-01 1.0000000000e-03 0.0000000000e+00
8.7000000000e-01 1.0000000000e-03 0.0000000000e+00
8.8000000000e-01 1.0000000000e-03 0.0000000000e+00
8.9000000000e-01 1.0000000000e-03 0.0000000000e+00
9.0000000000e-01 1.0000000000e-03 0.0000000000e+00
9.1000000000e-01 1.0000000000e-03 0.0000000000e+00
9.2000000000e-01 1.0000000000e-03 0.0000000000e+00
[...]
CELL_DATA 1000

SCALARS massDensity float
LOOKUP_TABLE default
9.9999999996e+02
9.9999999996e+02
9.9999999996e+02
9.9999999996e+02
9.9999999996e+02
9.9999999995e+02
9.9999999995e+02
9.9999999992e+02
9.9999999983e+02
9.9999999954e+02
9.9999999864e+02
9.9999999585e+02
9.9999998754e+02
9.9999996353e+02
9.9999989626e+02
9.9999971372e+02
9.9999923440e+02
9.9999801750e+02
9.9999503339e+02
9.9998797255e+02
9.9997187027e+02
9.9993652062e+02
9.9986191245e+02
9.9971073254e+02
9.9941704575e+02
9.9887088113e+02
9.9789993356e+02
9.9625198176e+02
9.9358434386e+02
9.8946832334e+02
9.8341527599e+02
9.7492556085e+02
9.6355335333e+02
9.4897274187e+02
9.3102802425e+02
9.0975563062e+02
8.8537454747e+02
8.5825172810e+02
8.2885453712e+02
7.9770251096e+02
7.6532718109e+02
7.3224402830e+02
6.9893681394e+02
6.6585232349e+02
6.3340275159e+02
6.0197293266e+02
5.7192972005e+02
5.4363048397e+02
5.1742649323e+02
4.9365468910e+02
4.7260861506e+02
4.5447827114e+02
4.3925428213e+02
4.2661050344e+02
4.1584757221e+02
4.0590795376e+02
3.9560390267e+02
3.8396695154e+02
3.7055353912e+02
3.5556833157e+02
3.3975366327e+02
3.2412399564e+02
3.0968448299e+02
2.9724199762e+02
2.8732444461e+02
2.8008677633e+02
2.7494421638e+02
2.6980389945e+02
2.6065133950e+02
2.4312782813e+02
2.1635077509e+02
1.8546559468e+02
1.5863400385e+02
1.4084795039e+02
1.3154702233e+02
1.2748094800e+02
1.2589389773e+02
1.2531244706e+02
1.2510686504e+02
1.2503586495e+02
1.2501181420e+02
1.2500381744e+02
1.2500120895e+02
1.2500037494e+02
1.2500011379e+02
1.2500003378e+02
1.2500000981e+02
1.2500000278e+02
1.2500000077e+02
1.2500000021e+02
1.2500000006e+02
1.2500000002e+02
1.2500000001e+02
1.2500000001e+02
1.2500000000e+02
1.2500000000e+02
1.2500000000e+02
1.2500000000e+02
1.2500000000e+02
1.2500000000e+02
9.9999999996e+02
9.9999999996e+02
9.9999999996e+02
9.9999999996e+02
9.9999999996e+02
9.9999999995e+02
9.9999999995e+02
9.9999999992e+02
9.9999999983e+02
9.9999999954e+02
9.9999999864e+02
9.9999999585e+02
9.9999998754e+02
9.9999996353e+02
9.9999989626e+02
9.9999971372e+02
9.9999923440e+02
9.9999801750e+02
9.9999503339e+02
9.9998797255e+02
9.9997187027e+02
9.9993652062e+02
9.9986191245e+02
9.9971073254e+02
9.9941704575e+02
9.9887088113e+02
9.9789993356e+02
9.9625198176e+02
9.9358434386e+02
9.8946832334e+02
9.8341527599e+02
9.7492556085e+02
9.6355335333e+02
9.4897274187e+02
9.3102802425e+02
9.0975563062e+02
8.8537454747e+02
8.5825172810e+02
8.2885453712e+02
7.9770251096e+02
7.6532718109e+02
7.3224402830e+02
6.9893681394e+02
6.6585232349e+02
6.3340275159e+02
6.0197293266e+02
5.7192972005e+02
5.4363048397e+02
5.1742649323e+02
4.9365468910e+02
4.7260861506e+02
4.5447827114e+02
4.3925428213e+02
4.2661050344e+02
4.1584757221e+02
4.0590795376e+02
3.9560390267e+02
3.8396695154e+02
3.7055353912e+02
3.5556833157e+02
3.3975366327e+02
3.2412399564e+02
3.0968448299e+02
2.9724199762e+02
2.8732444461e+02
2.8008677633e+02
2.7494421638e+02
2.6980389945e+02
2.6065133950e+02
2.4312782813e+02
2.1635077509e+02
1.8546559468e+02
1.5863400385e+02
1.4084795039e+02
1.3154702233e+02
1.2748094800e+02
1.2589389773e+02
1.2531244706e+02
1.2510686504e+02
1.2503586495e+02
1.2501181420e+02
1.2500381744e+02
1.2500120895e+02
1.2500037494e+02
1.2500011379e+02
1.2500003378e+02
1.2500000981e+02
1.2500000278e+02
1.2500000077e+02
1.2500000021e+02
1.2500000006e+02
1.2500000002e+02
1.2500000001e+02
1.2500000001e+02
1.2500000000e+02
1.2500000000e+02
1.2500000000e+02
1.2500000000e+02
1.2500000000e+02
1.2500000000e+02
9.9999999996e+02
9.9999999996e+02
9.9999999996e+02
9.9999999996e+02
9.9999999996e+02
9.9999999995e+02
9.9999999995e+02
9.9999999992e+02
9.9999999983e+02
9.9999999954e+02
9.9999999864e+02
9.9999999585e+02
9.9999998754e+02
9.9999996353e+02
9.9999989626e+02
9.9999971372e+02
9.9999923440e+02
9.9999801750e+02
9.9999503339e+02
9.9998797255e+02
9.9997187027e+02
9.9993652062e+02
9.9986191245e+02
9.9971073254e+02
9.9941704575e+02
9.9887088113e+02
9.9789993356e+02
9.9625198176e+02
9.9358434386e+02
9.8946832334e+02
9.8341527599e+02
9.7492556085e+02
9.6355335333e+02
9.4897274187e+02
9.3102802425e+02
9.0975563062e+02
8.8537454747e+02
8.5825172810e+02
8.2885453712e+02
7.9770251096e+02
7.6532718109e+02
7.3224402830e+02
6.9893681394e+02
6.6585232349e+02
6.3340275159e+02
6.0197293266e+02
5.7192972005e+02
5.4363048397e+02
5.1742649323e+02
4.9365468910e+02
4.7260861506e+02
4.5447827114e+02
4.3925428213e+02
4.2661050344e+02
4.1584757221e+02
4.0590795376e+02
3.9560390267e+02
3.8396695154e+02
3.7055353912e+02
3.5556833157e+02
3.3975366327e+02
3.2412399564e+02
3.0968448299e+02
2.9724199762e+02
2.8732444461e+02
2.8008677633e+02
2.7494421638e+02
2.6980389945e+02
2.6065133950e+02
2.4312782813e+02
2.1635077509e+02
1.8546559468e+02
1.5863400385e+02
1.4084795039e+02
1.3154702233e+02
1.2748094800e+02
1.2589389773e+02
1.2531244706e+02
1.2510686504e+02
1.2503586495e+02
1.2501181420e+02
1.2500381744e+02
1.2500120895e+02
1.2500037494e+02
1.2500011379e+02
1.2500003378e+02
1.2500000981e+02
1.2500000278e+02
1.2500000077e+02
1.2500000021e+02
1.2500000006e+02
1.2500000002e+02
1.2500000001e+02
1.2500000001e+02
1.2500000000e+02
1.2500000000e+02
1.2500000000e+02
1.2500000000e+02
1.2500000000e+02
1.2500000000e+02
9.9999999996e+02
9.9999999996e+02
9.9999999996e+02
9.9999999996e+02
9.9999999996e+02
9.9999999995e+02
9.9999999995e+02
9.9999999992e+02
9.9999999983e+02
9.9999999954e+02
9.9999999864e+02
9.9999999585e+02
9.9999998754e+02
9.9999996353e+02
9.9999989626e+02
9.9999971372e+02
9.9999923440e+02
9.9999801750e+02
9.9999503339e+02
9.9998797255e+02
9.9997187027e+02
9.9993652062e+02
9.9986191245e+02
9.9971073254e+02
9.9941704575e+02
9.9887088113e+02
9.9789993356e+02
9.9625198176e+02
9.9358434386e+02
9.8946832334e+02
9.8341527599e+02
9.7492556085e+02
9.6355335333e+02
9.4897274187e+02
9.3102802425e+02
9.0975563062e+02
8.8537454747e+02
8.5825172810e+02
8.2885453712e+02
7.9770251096e+02
7.6532718109e+02
7.3224402830e+02
6.9893681394e+02
6.6585232349e+02
6.3340275159e+02
6.0197293266e+02
5.7192972005e+02
5.4363048397e+02
5.1742649323e+02
4.9365468910e+02
4.7260861506e+02
4.5447827114e+02
4.3925428213e+02
4.2661050344e+02
4.1584757221e+02
4.0590795376e+02
3.9560390267e+02
3.8396695154e+02
3.7055353912e+02
3.5556833157e+02
3.3975366327e+02
3.2412399564e+02
3.0968448299e+02
2.9724199762e+02
2.8732444461e+02
2.8008677633e+02
2.7494421638e+02
2.6980389945e+02
2.6065133950e+02
2.4312782813e+02
2.1635077509e+02
1.8546559468e+02
1.5863400385e+02
1.4084795039e+02
1.3154702233e+02
1.2748094800e+02
1.2589389773e+02
1.2531244706e+02
1.2510686504e+02
1.2503586495e+02
1.2501181420e+02
1.2500381744e+02
1.2500120895e+02
1.2500037494e+02
1.2500011379e+02
1.2500003378e+02
1.2500000981e+02
1.2500000278e+02
1.2500000077e+02
1.2500000021e+02
1.2500000006e+02
1.2500000002e+02
1.2500000001e+02
1.2500000001e+02
1.2500000000e+02
1.2500000000e+02
1.2500000000e+02
1.2500000000e+02
1.2500000000e+02
1.2500000000e+02
9.9999999996e+02
9.9999999996e+02
9.9999999996e+02
9.9999999996e+02
9.9999999996e+02
9.9999999995e+02
9.9999999995e+02
9.9999999992e+02
9.9999999983e+02
9.9999999954e+02
9.9999999864e+02
9.9999999585e+02
9.9999998754e+02
9.9999996353e+02
9.9999989626e+02
9.9999971372e+02
9.9999923440e+02
9.9999801750e+02
9.9999503339e+02
9.9998797255e+02
9.9997187027e+02
9.9993652062e+02
9.9986191245e+02
9.9971073254e+02
9.9941704575e+02
9.9887088113e+02
9.9789993356e+02
9.9625198176e+02
9.9358434386e+02
9.8946832334e+02
9.8341527599e+02
9.7492556085e+02
9.6355335333e+02
9.4897274187e+02
9.3102802425e+02
9.0975563062e+02
8.8537454747e+02
8.5825172810e+02
8.2885453712e+02
7.9770251096e+02
7.6532718109e+02
7.3224402830e+02
6.9893681394e+02
6.6585232349e+02
6.3340275159e+02
6.0197293266e+02
5.7192972005e+02
5.4363048397e+02
5.1742649323e+02
4.9365468910e+02
4.7260861506e+02
4.5447827114e+02
4.3925428213e+02
4.2661050344e+02
4.1584757221e+02
4.0590795376e+02
3.9560390267e+02
3.8396695154e+02
3.7055353912e+02
3.5556833157e+02
3.3975366327e+02
3.2412399564e+02
3.0968448299e+02
2.9724199762e+02
2.8732444461e+02
2.8008677633e+02
2.7494421638e+02
2.6980389945e+02
2.6065133950e+02
2.4312782813e+02
2.1635077509e+02
1.8546559468e+02
1.5863400385e+02
1.4084795039e+02
1.3154702233e+02
1.2748094800e+02
1.2589389773e+02
1.2531244706e+02
1.2510686504e+02
1.2503586495e+02
1.2501181420e+02
1.2500381744e+02
1.2500120895e+02
1.2500037494e+02
1.2500011379e+02
1.2500003378e+02
1.2500000981e+02
1.2500000278e+02
1.2500000077e+02
1.2500000021e+02
1.2500000006e+02
1.2500000002e+02
1.2500000001e+02
1.2500000001e+02
1.2500000000e+02
1.2500000000e+02
1.2500000000e+02
1.2500000000e+02
1.2500000000e+02
1.2500000000e+02
9.9999999996e+02
9.9999999996e+02
9.9999999996e+02
9.9999999996e+02
9.9999999996e+02
9.9999999995e+02
9.9999999995e+02
9.9999999992e+02
9.9999999983e+02
9.9999999954e+02
9.9999999864e+02
9.9999999585e+02
9.9999998754e+02
9.9999996353e+02
9.9999989626e+02
9.9999971372e+02
9.9999923440e+02
9.9999801750e+02
9.9999503339e+02
9.9998797255e+02
9.9997187027e+02
9.9993652062e+02
9.9986191245e+02
9.9971073254e+02
9.9941704575e+02
9.9887088113e+02
9.9789993356e+02
9.9625198176e+02
9.9358434386e+02
9.8946832334e+02
9.8341527599e+02
9.7492556085e+02
9.6355335333e+02
9.4897274187e+02
9.3102802425e+02
9.0975563062e+02
8.8537454747e+02
8.5825172810e+02
8.2885453712e+02
7.9770251096e+02
7.6532718109e+02
7.3224402830e+02
6.9893681394e+02
6.6585232349e+02
6.3340275159e+02
6.0197293266e+02
5.7192972005e+02
5.4363048397e+02
5.1742649323e+02
4.9365468910e+02
4.7260861506e+02
4.5447827114e+02
4.3925428213e+02
4.2661050344e+02
4.1584757221e+02
4.0590795376e+02
3.9560390267e+02
3.8396695154e+02
3.7055353912e+02
3.5556833157e+02
3.3975366327e+02
3.2412399564e+02
3.0968448299e+02
2.9724199762e+02
2.8732444461e+02
2.8008677633e+02
2.7494421638e+02
2.6980389945e+02
2.6065133950e+02
2.4312782813e+02
2.1635077509e+02
1.8546559468e+02
1.5863400385e+02
1.4084795039e+02
1.3154702233e+02
1.2748094800e+02
1.2589389773e+02
1.2531244706e+02
1.2510686504e+02
1.2503586495e+02
1.2501181420e+02
1.2500381744e+02
1.2500120895e+02
1.2500037494e+02
1.2500011379e+02
1.2500003378e+02
1.2500000981e+02
1.2500000278e+02
1.2500000077e+02
1.2500000021e+02
1.2500000006e+02
1.2500000002e+02
1.2500000001e+02
1.2500000001e+02
1.2500000000e+02
1.2500000000e+02
1.2500000000e+02
1.2500000000e+02
1.2500000000e+02
1.2500000000e+02
9.9999999996e+02
9.9999999996e+02
9.9999999996e+02
9.9999999996e+02
9.9999999996e+02
9.9999999995e+02
9.9999999995e+02
9.9999999992e+02
9.9999999983e+02
9.9999999954e+02
9.9999999864e+02
9.9999999585e+02
9.9999998754e+02
9.9999996353e+02
9.9999989626e+02
9.9999971372e+02
9.9999923440e+02
9.9999801750e+02
9.9999503339e+02
9.9998797255e+02
9.9997187027e+02
9.9993652062e+02
9.9986191245e+02
9.9971073254e+02
9.9941704575e+02
9.9887088113e+02
9.9789993356e+02
9.9625198176e+02
9.9358434386e+02
9.8946832334e+02
9.8341527599e+02
9.7492556085e+02
9.6355335333e+02
9.4897274187e+02
9.3102802425e+02
9.0975563062e+02
8.8537454747e+02
8.5825172810e+02
8.2885453712e+02
7.9770251096e+02
7.6532718109e+02
7.3224402830e+02
6.9893681394e+02
6.6585232349e+02
6.3340275159e+02
6.0197293266e+02
5.7192972005e+02
5.4363048397e+02
5.1742649323e+02
4.9365468910e+02
4.7260861506e+02
4.5447827114e+02
4.3925428213e+02
4.2661050344e+02
4.1584757221e+02
4.0590795376e+02
3.9560390267e+02
3.8396695154e+02
3.7055353912e+02
3.5556833157e+02
3.3975366327e+02
3.2412399564e+02
3.0968448299e+02
2.9724199762e+02
2.8732444461e+02
2.8008677633e+02
2.7494421638e+02
2.6980389945e+02
2.6065133950e+02
2.4312782813e+02
2.1635077509e+02
1.8546559468e+02
1.5863400385e+02
1.4084795039e+02
1.3154702233e+02
1.2748094800e+02
1.2589389773e+02
1.2531244706e+02
1.2510686504e+02
1.2503586495e+02
1.2501181420e+02
1.2500381744e+02
1.2500120895e+02
1.2500037494e+02
1.2500011379e+02
1.2500003378e+02
1.2500000981e+02
1.2500000278e+02
1.2500000077e+02
1.2500000021e+02
1.2500000006e+02
1.2500000002e+02
1.2500000001e+02
1.2500000001e+02
1.2500000000e+02
1.2500000000e+02
1.2500000000e+02
1.2500000000e+02
1.2500000000e+02
1.2500000000e+02
9.9999999996e+02
9.9999999996e+02
9.9999999996e+02
9.9999999996e+02
9.9999999996e+02
9.9999999995e+02
9.9999999995e+02
9.9999999992e+02
9.9999999983e+02
9.9999999954e+02
9.9999999864e+02
9.9999999585e+02
9.9999998754e+02
9.9999996353e+02
9.9999989626e+02
9.9999971372e+02
9.9999923440e+02
9.9999801750e+02
9.9999503339e+02
9.9998797255e+02
9.9997187027e+02
9.9993652062e+02
9.9986191245e+02
9.9971073254e+02
9.9941704575e+02
9.9887088113e+02
9.9789993356e+02
9.9625198176e+02
9.9358434386e+02
9.8946832334e+02
9.8341527599e+02
9.7492556085e+02
9.6355335333e+02
9.4897274187e+02
9.3102802425e+02
9.0975563062e+02
8.8537454747e+02
8.5825172810e+02
8.2885453712e+02
7.9770251096e+02
7.6532718109e+02
7.3224402830e+02
6.9893681394e+02
6.6585232349e+02
6.3340275159e+02
6.0197293266e+02
5.7192972005e+02
5.4363048397e+02
5.1742649323e+02
4.9365468910e+02
4.7260861506e+02
4.5447827114e+02
4.3925428213e+02
4.2661050344e+02
4.1584757221e+02
4.0590795376e+02
3.9560390267e+02
3.8396695154e+02
3.7055353912e+02
3.5556833157e+02
3.3975366327e+02
3.2412399564e+02
3.0968448299e+02
2.9724199762e+02
2.8732444461e+02
2.8008677633e+02
2.7494421638e+02
2.6980389945e+02
2.6065133950e+02
2.4312782813e+02
2.1635077509e+02
1.8546559468e+02
1.5863400385e+02
1.4084795039e+02
1.3154702233e+02
1.2748094800e+02
1.2589389773e+02
1.2531244706e+02
1.2510686504e+02
1.2503586495e+02
1.2501181420e+02
1.2500381744e+02
1.2500120895e+02
1.2500037494e+02
1.2500011379e+02
1.2500003378e+02
1.2500000981e+02
1.2500000278e+02
1.2500000077e+02
1.2500000021e+02
1.2500000006e+02
1.2500000002e+02
1.2500000001e+02
1.2500000001e+02
1.2500000000e+02
1.2500000000e+02
1.2500000000e+02
1.2500000000e+02
1.2500000000e+02
1.2500000000e+02
9.9999999996e+02
9.9999999996e+02
9.9999999996e+02
9.9999999996e+02
9.9999999996e+02
9.9999999995e+02
9.9999999995e+02
9.9999999992e+02
9.9999999983e+02
9.9999999954e+02
9.9999999864e+02
9.9999999585e+02
9.9999998754e+02
9.9999996353e+02
9.9999989626e+02
9.9999971372e+02
9.9999923440e+02
9.9999801750e+02
9.9999503339e+02
9.9998797255e+02
9.9997187027e+02
9.9993652062e+02
9.9986191245e+02
9.9971073254e+02
9.9941704575e+02
9.9887088113e+02
9.9789993356e+02
9.9625198176e+02
9.9358434386e+02
9.8946832334e+02
9.8341527599e+02
9.7492556085e+02
9.6355335333e+02
9.4897274187e+02
9.3102802425e+02
9.0975563062e+02
8.8537454747e+02
8.5825172810e+02
8.2885453712e+02
7.9770251096e+02
7.6532718109e+02
7.3224402830e+02
6.9893681394e+02
6.6585232349e+02
6.3340275159e+02
6.0197293266e+02
5.7192972005e+02
5.4363048397e+02
5.1742649323e+02
4.9365468910e+02
4.7260861506e+02
4.5447827114e+02
4.3925428213e+02
4.2661050344e+02
4.1584757221e+02
4.0590795376e+02
3.9560390267e+02
3.8396695154e+02
3.7055353912e+02
3.5556833157e+02
3.3975366327e+02
3.2412399564e+02
3.0968448299e+02
2.9724199762e+02
2.8732444461e+02
2.8008677633e+02
2.7494421638e+02
2.6980389945e+02
2.6065133950e+02
2.4312782813e+02
2.1635077509e+02
1.8546559468e+02
1.5863400385e+02
1.4084795039e+02
1.3154702233e+02
1.2748094800e+02
1.2589389773e+02
1.2531244706e+02
1.2510686504e+02
1.2503586495e+02
1.2501181420e+02
1.2500381744e+02
1.2500120895e+02
1.2500037494e+02
1.2500011379e+02
1.2500003378e+02
1.2500000981e+02
1.2500000278e+02
1.2500000077e+02
1.2500000021e+02
1.2500000006e+02
1.2500000002e+02
1.2500000001e+02
1.2500000001e+02
1.2500000000e+02
1.2500000000e+02
1.2500000000e+02
1.2500000000e+02
1.2500000000e+02
1.2500000000e+02
9.9999999996e+02
9.9999999996e+02
9.9999999996e+02
9.9999999996e+02
9.9999999996e+02
9.9999999995e+02
9.9999999995e+02
9.9999999992e+02
9.9999999983e+02
9.9999999954e+02
9.9999999864e+02
9.9999999585e+02
9.9999998754e+02
9.9999996353e+02
9.9999989626e+02
9.9999971372e+02
9.9999923440e+02
9.9999801750e+02
9.9999503339e+02
9.9998797255e+02
9.9997187027e+02
9.9993652062e+02
9.9986191245e+02
9.9971073254e+02
9.9941704575e+02
9.9887088113e+02
9.9789993356e+02
9.9625198176e+02
9.9358434386e+02
9.8946832334e+02
9.8341527599e+02
9.7492556085e+02
9.6355335333e+02
9.4897274187e+02
9.3102802425e+02
9.0975563062e+02
8.8537454747e+02
8.5825172810e+02
8.2885453712e+02
7.9770251096e+02
7.6532718109e+02
7.3224402830e+02
6.9893681394e+02
6.6585232349e+02
6.3340275159e+02
6.0197293266e+02
5.7192972005e+02
5.4363048397e+02
5.1742649323e+02
4.9365468910e+02
4.7260861506e+02
4.5447827114e+02
4.3925428213e+02
4.2661050344e+02
4.1584757221e+02
4.0590795376e+02
3.9560390267e+02
3.8396695154e+02
3.7055353912e+02
3.5556833157e+02
3.3975366327e+02
3.2412399564e+02
3.0968448299e+02
2.9724199762e+02
2.8732444461e+02
2.8008677633e+02
2.7494421638e+02
2.6980389945e+02
2.6065133950e+02
2.4312782813e+02
2.1635077509e+02
1.8546559468e+02
1.5863400385e+02
1.4084795039e+02
1.3154702233e+02
1.2748094800e+02
1.2589389773e+02
1.2531244706e+02
1.2510686504e+02
1.2503586495e+02
1.2501181420e+02
1.2500381744e+02
1.2500120895e+02
1.2500037494e+02
1.2500011379e+02
1.2500003378e+02
1.2500000981e+02
1.2500000278e+02
1.2500000077e+02
1.2500000021e+02
1.2500000006e+02
1.2500000002e+02
1.2500000001e+02
1.2500000001e+02
1.2500000000e+02
1.2500000000e+02
1.2500000000e+02
1.2500000000e+02
1.2500000000e+02
1.2500000000e+02

SCALARS molarDensity float
LOOKUP_TABLE default
1.2977624132e+05
1.2977624132e+05
1.2977624132e+05
1.2977624132e+05
1.2977624132e+05
1.2977624132e+05
1.2977624132e+05
1.2977624132e+05
1.2977624131e+05
1.2977624127e+05
1.2977624115e+05
1.2977624079e+05
1.2977623971e+05
1.2977623659e+05
1.2977622786e+05
1.2977620417e+05
1.2977614197e+05
1.2977598405e+05
1.2977559678e+05
1.2977468045e+05
1.2977259076e+05
1.2976800321e+05
1.2975832084e+05
1.2973870128e+05
1.2970058772e+05
1.2962970852e+05
1.2950370260e+05
1.2928983761e+05
1.2894364159e+05
1.2840947992e+05
1.2762393818e+05
1.2652217486e+05
1.2504633251e+05
1.2315411556e+05
1.2082531756e+05
1.1806466627e+05
1.1490058094e+05
1.1138068339e+05
1.0756562643e+05
1.0352283357e+05
9.9321284947e+04
9.5027877727e+04
9.0705392639e+04
8.6411811821e+04
8.2200628347e+04
7.8121784581e+04
7.4222889371e+04
7.0550320881e+04
6.7149665454e+04
6.4064650065e+04
6.1333369681e+04
5.8980481794e+04
5.7004769722e+04
5.5363907647e+04
5.3967134886e+04
5.2677208564e+04
5.1339987543e+04
4.9829787764e+04
4.8089045518e+04
4.6144321606e+04
4.4091953396e+04
4.2063593877e+04
4.0189688199e+04
3.8574949216e+04
3.7287886463e+04
3.6348609077e+04
3.5681226976e+04
3.5014135965e+04
3.3826351137e+04
3.1552215697e+04
2.8077190400e+04
2.4069027773e+04
2.0586924767e+04
1.8278717600e+04
1.7071678116e+04
1.6543998273e+04
1.6338036854e+04
1.6262578371e+04
1.6235898709e+04
1.6226684584e+04
1.6223563368e+04
1.6222525579e+04
1.6222187059e+04
1.6222078824e+04
1.6222044934e+04
1.6222034550e+04
1.6222031438e+04
1.6222030527e+04
1.6222030266e+04
1.6222030194e+04
1.6222030174e+04
1.6222030168e+04
1.6222030167e+04
1.6222030167e+04
1.6222030167e+04
1.6222030166e+04
1.6222030166e+04
1.6222030166e+04
1.6222030166e+04
1.6222030166e+04
1.2977624132e+05
1.2977624132e+05
1.2977624132e+05
1.2977624132e+05
1.2977624132e+05
1.2977624132e+05
1.2977624132e+05
1.2977624132e+05
1.2977624131e+05
1.2977624127e+05
1.2977624115e+05
1.2977624079e+05
1.2977623971e+05
1.2977623659e+05
1.2977622786e+05
1.2977620417e+05
1.2977614197e+05
1.2977598405e+05
1.2977559678e+05
1.2977468045e+05
1.2977259076e+05
1.2976800321e+05
1.2975832084e+05
1.2973870128e+05
1.2970058772e+05
1.2962970852e+05
1.2950370260e+05
1.2928983761e+05
1.2894364159e+05
1.2840947992e+05
1.2762393818e+05
1.2652217486e+05
1.2504633251e+05
1.2315411556e+05
1.2082531756e+05
1.1806466627e+05
1.1490058094e+05
1.1138068339e+05
1.0756562643e+05
1.0352283357e+05
9.9321284947e+04
9.5027877727e+04
9.0705392639e+04
8.6411811821e+04
8.2200628347e+04
7.8121784581e+04
7.4222889371e+04
7.0550320881e+04
6.7149665454e+04
6.4064650065e+04
6.1333369681e+04
5.8980481794e+04
5.7004769722e+04
5.5363907647e+04
5.3967134886e+04
5.2677208564e+04
5.1339987543e+04
4.9829787764e+04
4.8089045518e+04
4.6144321606e+04
4.4091953396e+04
4.2063593877e+04
4.0189688199e+04
3.8574949216e+04
3.7287886463e+04
3.6348609077e+04
3.5681226976e+04
3.5014135965e+04
3.3826351137e+04