# vtk DataFile Version 2.0
Blank
ASCII
DATASET STRUCTURED_GRID
DIMENSIONS 101 11 2
POINTS 2222 float
0.0000000000e+00 0.0000000000e+00 0.0000000000e+00
1.0000000000e-02 0.0000000000e+00 0.0000000000e+00
2.0000000000e-02 0.0000000000e+00 0.0000000000e+00
3.0000000000e-02 0.0000000000e+00 0.0000000000e+00
4.0000000000e-02 0.0000000000e+00 0.0000000000e+00
5.0000000000e-02 0.0000000000e+00 0.0000000000e+00
6.0000000000e-02 0.0000000000e+00 0.0000000000e+00
7.0000000000e-02 0.0000000000e+00 0.0000000000e+00
8.0000000000e-02 0.0000000000e+00 0.0000000000e+00
9.0000000000e-02 0.0000000000e+00 0.0000000000e+00
1.0000000000e-01 0.0000000000e+00 0.0000000000e+00
1.1000000000e-01 0.0000000000e+00 0.0000000000e+00
1.2000000000e-01 0.0000000000e+00 0.0000000000e+00
1.3000000000e-01 0.0000000000e+00 0.0000000000e+00
1.4000000000e-01 0.0000000000e+00 0.0000000000e+00
1.5000000000e-01 0.0000000000e+00 0.0000000000e+00
1.6000000000e-01 0.0000000000e+00 0.0000000000e+00
1.7000000000e-01 0.0000000000e+00 0.0000000000e+00
1.8000000000e-01 0.0000000000e+00 0.0000000000e+00
1.9000000000e-01 0.0000000000e+00 0.0000000000e+00
2.0000000000e-01 0.0000000000e+00 0.0000000000e+00
2.1000000000e-01 0.0000000000e+00 0.0000000000e+00
2.2000000000e-01 0.0000000000e+00 0.0000000000e+00
2.3000000000e-01 0.0000000000e+00 0.0000000000e+00
2.4000000000e-01 0.0000000000e+00 0.0000000000e+00
2.5000000000e-01 0.0000000000e+00 0.0000000000e+00
2.6000000000e-01 0.0000000000e+00 0.0000000000e+00
2.7000000000e-01 0.0000000000e+00 0.0000000000e+00
2.8000000000e-01 0.0000000000e+00 0.0000000000e+00
2.9000000000e-01 0.0000000000e+00 0.0000000000e+00
3.0000000000e-01 0.0000000000e+00 0.0000000000e+00
3.1000000000e-01 0.0000000000e+00 0.0000000000e+00
3.2000000000e-01 0.0000000000e+00 0.0000000000e+00
3.3000000000e-01 0.0000000000e+00 0.0000000000e+00
3.4000000000e-01 0.0000000000e+00 0.0000000000e+00
3.5000000000e-01 0.0000000000e+00 0.0000000000e+00
3.6000000000e-01 0.0000000000e+00 0.0000000000e+00
3.7000000000e-01 0.0000000000e+00 0.0000000000e+00
3.8000000000e-01 0.0000000000e+00 0.0000000000e+00
3.9000000000e-01 0.0000000000e+00 0.0000000000e+00
4.0000000000e-01 0.0000000000e+00 0.0000000000e+00
4.1000000000e-01 0.0000000000e+00 0.0000000000e+00
4.2000000000e-01 0.0000000000e+00 0.0000000000e+00
4.3000000000e-01 0.0000000000e+00 0.0000000000e+00
4.4000000000e-01 0.0000000000e+00 0.0000000000e+00
4.5000000000e-01 0.0000000000e+00 0.0000000000e+00
4.6000000000e-01 0.0000000000e+00 0.0000000000e+00
4.7000000000e-01 0.0000000000e+00 0.0000000000e+00
4.8000000000e-01 0.0000000000e+00 0.0000000000e+00
4.9000000000e-01 0.0000000000e+00 0.0000000000e+00
5.0000000000e-01 0.0000000000e+00 0.0000000000e+00
5.1000000000e-01 0.0000000000e+00 0.0000000000e+00
5.2000000000e-01 0.0000000000e+00 0.0000000000e+00
5.3000000000e-01 0.0000000000e+00 0.0000000000e+00
5.4000000000e-01 0.0000000000e+00 0.0000000000e+00
5.5000000000e-01 0.0000000000e+00 0.0000000000e+00
5.6000000000e-01 0.0000000000e+00 0.0000000000e+00
5.7000000000e-01 0.0000000000e+00 0.0000000000e+00
5.8000000000e-01 0.0000000000e+00 0.0000000000e+00
5.9000000000e-01 0.0000000000e+00 0.0000000000e+00
6.0000000000e-01 0.0000000000e+00 0.0000000000e+00
6.1000000000e-01 0.0000000000e+00 0.0000000000e+00
6.2000000000e-01 0.0000000000e+00 0.0000000000e+00
6.3000000000e-01 0.0000000000e+00 0.0000000000e+00
6.4000000000e-01 0.0000000000e+00 0.0000000000e+00
6.5000000000e-01 0.0000000000e+00 0.0000000000e+00
6.6000000000e-01 0.0000000000e+00 0.0000000000e+00
6.7000000000e-01 0.0000000000e+00 0.0000000000e+00
6.8000000000e-01 0.0000000000e+00 0.0000000000e+00
6.9000000000e-01 0.0000000000e+00 0.0000000000e+00
7.0000000000e-01 0.0000000000e+00 0.0000000000e+00
7.1000000000e-01 0.0000000000e+00 0.0000000000e+00
7.2000000000e-01 0.0000000000e+00 0.0000000000e+00
7.3000000000e-01 0.0000000000e+00 0.0000000000e+00
7.4000000000e-01 0.0000000000e+00 0.0000000000e+00
7.5000000000e-01 0.0000000000e+00 0.0000000000e+00
7.6000000000e-01 0.0000000000e+00 0.0000000000e+00
7.7000000000e-01 0.0000000000e+00 0.0000000000e+00
7.8000000000e-01 0.0000000000e+00 0.0000000000e+00
7.9000000000e-01 0.0000000000e+00 0.0000000000e+00
8.0000000000e-01 0.0000000000e+00 0.0000000000e+00
8.1000000000e-01 0.0000000000e+00 0.0000000000e+00
8.2000000000e-01 0.0000000000e+00 0.0000000000e+00
8.3000000000e-01 0.0000000000e+00 0.0000000000e+00
8.4000000000e-01 0.0000000000e+00 0.0000000000e+00
8.5000000000e-01 0.0000000000e+00 0.0000000000e+00
8.6000000000e-01 0.0000000000e+00 0.0000000000e+00
8.7000000000e-01 0.0000000000e+00 0.0000000000e+00
8.8000000000e-01 0.0000000000e+00 0.0000000000e+00
8.9000000000e-01 0.0000000000e+00 0.0000000000e+00
9.0000000000e-01 0.0000000000e+00 0.0000000000e+00
9.1000000000e-01 0.0000000000e+00 0.0000000000e+00
9.2000000000e-01 0.0000000000e+00 0.0000000000e+00
9.3000000000e-01 0.0000000000e+00 0.0000000000e+00
9.4000000000e-01 0.0000000000e+00 0.0000000000e+00
9.5000000000e-01 0.0000000000e+00 0.0000000000e+00
9.6000000000e-01 0.0000000000e+00 0.0000000000e+00
9.7000000000e-01 0.0000000000e+00 0.0000000000e+00
9.8000000000e-01 0.0000000000e+00 0.0000000000e+00
9.9000000000e-01 0.0000000000e+00 0.0000000000e+00
1.0000000000e+00 0.0000000000e+00 0.0000000000e+00
0.0000000000e+00 1.0000000000e-03 0.0000000000e+00
1.0000000000e-02 1.0000000000e-03 0.0000000000e+00
2.0000000000e-02 1.0000000000e-03 0.0000000000e+00
3.0000000000e-02 1.0000000000e-03 0.0000000000e+00
4.0000000000e-02 1.0000000000e-03 0.0000000000e+00
5.0000000000e-02 1.0000000000e-03 0.0000000000e+00
6.0000000000e-02 1.0000000000e-03 0.0000000000e+00
7.0000000000e-02 1.0000000000e-03 0.0000000000e+00
8.0000000000e-02 1.0000000000e-03 0.0000000000e+00
9.0000000000e-02 1.0000000000e-03 0.0000000000e+00
1.0000000000e-01 1.0000000000e-03 0.0000000000e+00
1.1000000000e-01 1.0000000000e-03 0.0000000000e+00
1.2000000000e-01 1.0000000000e-03 0.0000000000e+00
1.3000000000e-01 1.0000000000e-03 0.0000000000e+00
1.4000000000e-01 1.0000000000e-03 0.0000000000e+00
1.5000000000e-01 1.0000000000e-03 0.0000000000e+00
1.6000000000e-01 1.0000000000e-03 0.0000000000e+00
1.7000000000e-01 1.0000000000e-03 0.0000000000e+00
1.8000000000e-01 1.0000000000e-03 0.0000000000e+00
1.9000000000e-01 1.0000000000e-03 0.0000000000e+00
2.0000000000e-01 1.0000000000e-03 0.0000000000e+00
2.1000000000e-01 1.0000000000e-03 0.0000000000e+00
2.2000000000e-01 1.0000000000e-03 0.0000000000e+00
2.3000000000e-01 1.0000000000e-03 0.0000000000e+00
2.4000000000e-01 1.0000000000e-03 0.0000000000e+00
2.5000000000e-01 1.0000000000e-03 0.0000000000e+00
2.6000000000e-01 1.0000000000e-03 0.0000000000e+00
2.7000000000e-01 1.0000000000e-03 0.0000000000e+00
2.8000000000e-01 1.0000000000e-03 0.0000000000e+00
2.9000000000e-01 1.0000000000e-03 0.0000000000e+00
3.0000000000e-01 1.0000000000e-03 0.0000000000e+00
3.1000000000e-01 1.0000000000e-03 0.0000000000e+00
3.2000000000e-01 1.0000000000e-03 0.0000000000e+00
3.3000000000e-01 1.0000000000e-03 0.0000000000e+00
3.4000000000e-01 1.0000000000e-03 0.0000000000e+00
3.5000000000e-01 1.0000000000e-03 0.0000000000e+00
3.6000000000e-01 1.0000000000e-03 0.0000000000e+00
3.7000000000e-01 1.0000000000e-03 0.0000000000e+00
3.8000000000e-01 1.0000000000e-03 0.0000000000e+00
3.9000000000e-01 1.0000000000e-03 0.0000000000e+00
4.0000000000e-01 1.0000000000e-03 0.0000000000e+00
4.1000000000e-01 1.0000000000e-03 0.0000000000e+00
4.2000000000e-01 1.0000000000e-03 0.0000000000e+00
4.3000000000e-01 1.0000000000e-03 0.0000000000e+00
4.4000000000e-01 1.0000000000e-03 0.0000000000e+00
4.5000000000e-01 1.0000000000e-03 0.0000000000e+00
4.6000000000e-01 1.0000000000e-03 0.0000000000e+00
4.7000000000e-01 1.0000000000e-03 0.0000000000e+00
4.8000000000e-01 1.0000000000e-03 0.0000000000e+00
4.9000000000e-01 1.0000000000e-03 0.0000000000e+00
5.0000000000e-01 1.0000000000e-03 0.0000000000e+00
5.1000000000e-01 1.0000000000e-03 0.0000000000e+00
5.2000000000e-01 1.0000000000e-03 0.0000000000e+00
5.3000000000e-01 1.0000000000e-03 0.0000000000e+00
5.4000000000e-01 1.0000000000e-03 0.0000000000e+00
5.5000000000e-01 1.0000000000e-03 0.0000000000e+00
5.6000000000e-01 1.0000000000e-03 0.0000000000e+00
5.7000000000e-01 1.0000000000e-03 0.0000000000e+00
5.8000000000e-01 1.0000000000e-03 0.0000000000e+00
5.9000000000e-01 1.0000000000e-03 0.0000000000e+00
6.0000000000e-01 1.0000000000e-03 0.0000000000e+00
6.1000000000e-01 1.0000000000e-03 0.0000000000e+00
6.2000000000e-01 1.0000000000e-03 0.0000000000e+00
6.3000000000e-01 1.0000000000e-03 0.0000000000e+00
6.4000000000e-01 1.0000000000e-03 0.0000000000e+00
6.5000000000e-01 1.0000000000e-03 0.0000000000e+00
6.6000000000e-01 1.0000000000e-03 0.0000000000e+00
6.7000000000e-01 1.0000000000e-03 0.0000000000e+00
6.8000000000e-01 1.0000000000e-03 0.0000000000e+00
6.9000000000e-01 1.0000000000e-03 0.0000000000e+00
7.0000000000e-01 1.0000000000e-03 0.0000000000e+00
7.1000000000e-01 1.0000000000e-03 0.0000000000e+00
7.2000000000e-01 1.0000000000e-03 0.0000000000e+00
7.3000000000e-01 1.0000000000e-03 0.0000000000e+00
7.4000000000e-01 1.0000000000e-03 0.0000000000e+00
7.5000000000e-01 1.0000000000e-03 0.0000000000e+00
7.6000000000e-01 1.0000000000e-03 0.0000000000e+00
7.7000000000e-01 1.0000000000e-03 0.0000000000e+00
7.8000000000e-01 1.0000000000e-03 0.0000000000e+00
7.9000000000e-01 1.0000000000e-03 0.0000000000e+00
8.0000000000e-01 1.0000000000e-03 0.0000000000e+00
8.1000000000e-01 1.0000000000e-03 0.0000000000e+00
8.2000000000e-01 1.0000000000e-03 0.0000000000e+00
8.3000000000e-01 1.0000000000e-03 0.0000000000e+00
8.4000000000e-01 1.0000000000e-03 0.0000000000e+00
8.5000000000e-01 1.0000000000e-03 0.0000000000e+00
8.6000000000e-01 1.0000000000e-03 0.0000000000e+00
8.7000000000e-01 1.0000000000e-03 0.0000000000e+00
8.8000000000e-01 1.0000000000e-03 0.0000000000e+00
8.9000000000e-01 1.0000000000e-03 0.0000000000e+00
9.0000000000e-01 1.0000000000e-03 0.0000000000e+00
9.1000000000e-01 1.0000000000e-03 0.0000000000e+00
9.2000000000e-01 1.0000000000e-03 0.0000000000e+00
[...]
CELL_DATA 1000

SCALARS massDensity float
LOOKUP_TABLE default
9.9999999810e+02
9.9999999633e+02
9.9999999067e+02
9.9999997614e+02
9.9999994011e+02
9.9999985302e+02
9.9999964789e+02
9.9999917697e+02
9.9999812414e+02
9.9999583311e+02
9.9999098389e+02
9.9998100746e+02
9.9996107235e+02
9.9992241265e+02
9.9984971279e+02
9.9971725822e+02
9.9948365880e+02
9.9908522006e+02
9.9842852298e+02
9.9738344756e+02
9.9577858462e+02
9.9340141776e+02
9.9000544241e+02
9.8532525631e+02
9.7909869262e+02
9.7109284049e+02
9.6112919309e+02
9.4910294877e+02
9.3499286568e+02
9.1886050388e+02
9.0084021751e+02
8.8112300093e+02
8.5993785027e+02
8.3753382088e+02
8.1416490713e+02
7.9007873037e+02
7.6550911640e+02
7.4067208884e+02
7.1576456979e+02
6.9096506462e+02
6.6643571214e+02
6.4232522648e+02
6.1877239002e+02
5.9590984929e+02
5.7386799395e+02
5.5277864342e+02
5.3277809748e+02
5.1400880177e+02
4.9661843387e+02
4.8075470951e+02
4.6655389177e+02
4.5412134299e+02
4.4350409023e+02
4.3465846682e+02
4.2741935130e+02
4.2147951240e+02
4.1639539617e+02
4.1160275395e+02
4.0647675973e+02
4.0041145796e+02
3.9291772247e+02
3.8372094889e+02
3.7282765892e+02
3.6053373762e+02
3.4736700408e+02
3.3398208515e+02
3.2104095886e+02
3.0911130065e+02
2.9860171825e+02
2.8973834700e+02
2.8257902586e+02
2.7705999158e+02
2.7306461562e+02
2.7046787875e+02
2.6901991812e+02
2.6785607175e+02
2.6468369839e+02
2.5559432358e+02
2.3704368375e+02
2.0962256846e+02
1.7953433279e+02
1.5463759529e+02
1.3878430769e+02
1.3070201000e+02
1.2719397452e+02
1.2581188171e+02
1.2529425354e+02
1.2510528544e+02
1.2503729248e+02
1.2501308213e+02
1.2500454300e+02
1.2500156055e+02
1.2500052981e+02
1.2500017762e+02
1.2500005876e+02
1.2500001917e+02
1.2500000617e+02
1.2500000196e+02
1.2500000062e+02
1.2500000026e+02
9.9999999810e+02
9.9999999633e+02
9.9999999067e+02
9.9999997614e+02
9.9999994011e+02
9.9999985302e+02
9.9999964789e+02
9.9999917697e+02
9.9999812414e+02
9.9999583311e+02
9.9999098389e+02
9.9998100746e+02
9.9996107235e+02
9.9992241265e+02
9.9984971279e+02
9.9971725822e+02
9.9948365880e+02
9.9908522006e+02
9.9842852298e+02
9.9738344756e+02
9.9577858462e+02
9.9340141776e+02
9.9000544241e+02
9.8532525631e+02
9.7909869262e+02
9.7109284049e+02
9.6112919309e+02
9.4910294877e+02
9.3499286568e+02
9.1886050388e+02
9.0084021751e+02
8.8112300093e+02
8.5993785027e+02
8.3753382088e+02
8.1416490713e+02
7.9007873037e+02
7.6550911640e+02
7.4067208884e+02
7.1576456979e+02
6.9096506462e+02
6.6643571214e+02
6.4232522648e+02
6.1877239002e+02
5.9590984929e+02
5.7386799395e+02
5.5277864342e+02
5.3277809748e+02
5.1400880177e+02
4.9661843387e+02
4.8075470951e+02
4.6655389177e+02
4.5412134299e+02
4.4350409023e+02
4.3465846682e+02
4.2741935130e+02
4.2147951240e+02
4.1639539617e+02
4.1160275395e+02
4.0647675973e+02
4.0041145796e+02
3.9291772247e+02
3.8372094889e+02
3.7282765892e+02
3.6053373762e+02
3.4736700408e+02
3.3398208515e+02
3.2104095886e+02
3.0911130065e+02
2.9860171825e+02
2.8973834700e+02
2.8257902586e+02
2.7705999158e+02
2.7306461562e+02
2.7046787875e+02
2.6901991812e+02
2.6785607175e+02
2.6468369839e+02
2.5559432358e+02
2.3704368375e+02
2.0962256846e+02
1.7953433279e+02
1.5463759529e+02
1.3878430769e+02
1.3070201000e+02
1.2719397452e+02
1.2581188171e+02
1.2529425354e+02
1.2510528544e+02
1.2503729248e+02
1.2501308213e+02
1.2500454300e+02
1.2500156055e+02
1.2500052981e+02
1.2500017762e+02
1.2500005876e+02
1.2500001917e+02
1.2500000617e+02
1.2500000196e+02
1.2500000062e+02
1.2500000026e+02
9.9999999810e+02
9.9999999633e+02
9.9999999067e+02
9.9999997614e+02
9.9999994011e+02
9.9999985302e+02
9.9999964789e+02
9.9999917697e+02
9.9999812414e+02
9.9999583311e+02
9.9999098389e+02
9.9998100746e+02
9.9996107235e+02
9.9992241265e+02
9.9984971279e+02
9.9971725822e+02
9.9948365880e+02
9.9908522006e+02
9.9842852298e+02
9.9738344756e+02
9.9577858462e+02
9.9340141776e+02
9.9000544241e+02
9.8532525631e+02
9.7909869262e+02
9.7109284049e+02
9.6112919309e+02
9.4910294877e+02
9.3499286568e+02
9.1886050388e+02
9.0084021751e+02
8.8112300093e+02
8.5993785027e+02
8.3753382088e+02
8.1416490713e+02
7.9007873037e+02
7.6550911640e+02
7.4067208884e+02
7.1576456979e+02
6.9096506462e+02
6.6643571214e+02
6.4232522648e+02
6.1877239002e+02
5.9590984929e+02
5.7386799395e+02
5.5277864342e+02
5.3277809748e+02
5.1400880177e+02
4.9661843387e+02
4.8075470951e+02
4.6655389177e+02
4.5412134299e+02
4.4350409023e+02
4.3465846682e+02
4.2741935130e+02
4.2147951240e+02
4.1639539617e+02
4.1160275395e+02
4.0647675973e+02
4.0041145796e+02
3.9291772247e+02
3.8372094889e+02
3.7282765892e+02
3.6053373762e+02
3.4736700408e+02
3.3398208515e+02
3.2104095886e+02
3.0911130065e+02
2.9860171825e+02
2.8973834700e+02
2.8257902586e+02
2.7705999158e+02
2.7306461562e+02
2.7046787875e+02
2.6901991812e+02
2.6785607175e+02
2.6468369839e+02
2.5559432358e+02
2.3704368375e+02
2.0962256846e+02
1.7953433279e+02
1.5463759529e+02
1.3878430769e+02
1.3070201000e+02
1.2719397452e+02
1.2581188171e+02
1.2529425354e+02
1.2510528544e+02
1.2503729248e+02
1.2501308213e+02
1.2500454300e+02
1.2500156055e+02
1.2500052981e+02
1.2500017762e+02
1.2500005876e+02
1.2500001917e+02
1.2500000617e+02
1.2500000196e+02
1.2500000062e+02
1.2500000026e+02
9.9999999810e+02
9.9999999633e+02
9.9999999067e+02
9.9999997614e+02
9.9999994011e+02
9.9999985302e+02
9.9999964789e+02
9.9999917697e+02
9.9999812414e+02
9.9999583311e+02
9.9999098389e+02
9.9998100746e+02
9.9996107235e+02
9.9992241265e+02
9.9984971279e+02
9.9971725822e+02
9.9948365880e+02
9.9908522006e+02
9.9842852298e+02
9.9738344756e+02
9.9577858462e+02
9.9340141776e+02
9.9000544241e+02
9.8532525631e+02
9.7909869262e+02
9.7109284049e+02
9.6112919309e+02
9.4910294877e+02
9.3499286568e+02
9.1886050388e+02
9.0084021751e+02
8.8112300093e+02
8.5993785027e+02
8.3753382088e+02
8.1416490713e+02
7.9007873037e+02
7.6550911640e+02
7.4067208884e+02
7.1576456979e+02
6.9096506462e+02
6.6643571214e+02
6.4232522648e+02
6.1877239002e+02
5.9590984929e+02
5.7386799395e+02
5.5277864342e+02
5.3277809748e+02
5.1400880177e+02
4.9661843387e+02
4.8075470951e+02
4.6655389177e+02
4.5412134299e+02
4.4350409023e+02
4.3465846682e+02
4.2741935130e+02
4.2147951240e+02
4.1639539617e+02
4.1160275395e+02
4.0647675973e+02
4.0041145796e+02
3.9291772247e+02
3.8372094889e+02
3.7282765892e+02
3.6053373762e+02
3.4736700408e+02
3.3398208515e+02
3.2104095886e+02
3.0911130065e+02
2.9860171825e+02
2.8973834700e+02
2.8257902586e+02
2.7705999158e+02
2.7306461562e+02
2.7046787875e+02
2.6901991812e+02
2.6785607175e+02
2.6468369839e+02
2.5559432358e+02
2.3704368375e+02
2.0962256846e+02
1.7953433279e+02
1.5463759529e+02
1.3878430769e+02
1.3070201000e+02
1.2719397452e+02
1.2581188171e+02
1.2529425354e+02
1.2510528544e+02
1.2503729248e+02
1.2501308213e+02
1.2500454300e+02
1.2500156055e+02
1.2500052981e+02
1.2500017762e+02
1.2500005876e+02
1.2500001917e+02
1.2500000617e+02
1.2500000196e+02
1.2500000062e+02
1.2500000026e+02
9.9999999810e+02
9.9999999633e+02
9.9999999067e+02
9.9999997614e+02
9.9999994011e+02
9.9999985302e+02
9.9999964789e+02
9.9999917697e+02
9.9999812414e+02
9.9999583311e+02
9.9999098389e+02
9.9998100746e+02
9.9996107235e+02
9.9992241265e+02
9.9984971279e+02
9.9971725822e+02
9.9948365880e+02
9.9908522006e+02
9.9842852298e+02
9.9738344756e+02
9.9577858462e+02
9.9340141776e+02
9.9000544241e+02
9.8532525631e+02
9.7909869262e+02
9.7109284049e+02
9.6112919309e+02
9.4910294877e+02
9.3499286568e+02
9.1886050388e+02
9.0084021751e+02
8.8112300093e+02
8.5993785027e+02
8.3753382088e+02
8.1416490713e+02
7.9007873037e+02
7.6550911640e+02
7.4067208884e+02
7.1576456979e+02
6.9096506462e+02
6.6643571214e+02
6.4232522648e+02
6.1877239002e+02
5.9590984929e+02
5.7386799395e+02
5.5277864342e+02
5.3277809748e+02
5.1400880177e+02
4.9661843387e+02
4.8075470951e+02
4.6655389177e+02
4.5412134299e+02
4.4350409023e+02
4.3465846682e+02
4.2741935130e+02
4.2147951240e+02
4.1639539617e+02
4.1160275395e+02
4.0647675973e+02
4.0041145796e+02
3.9291772247e+02
3.8372094889e+02
3.7282765892e+02
3.6053373762e+02
3.4736700408e+02
3.3398208515e+02
3.2104095886e+02
3.0911130065e+02
2.9860171825e+02
2.8973834700e+02
2.8257902586e+02
2.7705999158e+02
2.7306461562e+02
2.7046787875e+02
2.6901991812e+02
2.6785607175e+02
2.6468369839e+02
2.5559432358e+02
2.3704368375e+02
2.0962256846e+02
1.7953433279e+02
1.5463759529e+02
1.3878430769e+02
1.3070201000e+02
1.2719397452e+02
1.2581188171e+02
1.2529425354e+02
1.2510528544e+02
1.2503729248e+02
1.2501308213e+02
1.2500454300e+02
1.2500156055e+02
1.2500052981e+02
1.2500017762e+02
1.2500005876e+02
1.2500001917e+02
1.2500000617e+02
1.2500000196e+02
1.2500000062e+02
1.2500000026e+02
9.9999999810e+02
9.9999999633e+02
9.9999999067e+02
9.9999997614e+02
9.9999994011e+02
9.9999985302e+02
9.9999964789e+02
9.9999917697e+02
9.9999812414e+02
9.9999583311e+02
9.9999098389e+02
9.9998100746e+02
9.9996107235e+02
9.9992241265e+02
9.9984971279e+02
9.9971725822e+02
9.9948365880e+02
9.9908522006e+02
9.9842852298e+02
9.9738344756e+02
9.9577858462e+02
9.9340141776e+02
9.9000544241e+02
9.8532525631e+02
9.7909869262e+02
9.7109284049e+02
9.6112919309e+02
9.4910294877e+02
9.3499286568e+02
9.1886050388e+02
9.0084021751e+02
8.8112300093e+02
8.5993785027e+02
8.3753382088e+02
8.1416490713e+02
7.9007873037e+02
7.6550911640e+02
7.4067208884e+02
7.1576456979e+02
6.9096506462e+02
6.6643571214e+02
6.4232522648e+02
6.1877239002e+02
5.9590984929e+02
5.7386799395e+02
5.5277864342e+02
5.3277809748e+02
5.1400880177e+02
4.9661843387e+02
4.8075470951e+02
4.6655389177e+02
4.5412134299e+02
4.4350409023e+02
4.3465846682e+02
4.2741935130e+02
4.2147951240e+02
4.1639539617e+02
4.1160275395e+02
4.0647675973e+02
4.0041145796e+02
3.9291772247e+02
3.8372094889e+02
3.7282765892e+02
3.6053373762e+02
3.4736700408e+02
3.3398208515e+02
3.2104095886e+02
3.0911130065e+02
2.9860171825e+02
2.8973834700e+02
2.8257902586e+02
2.7705999158e+02
2.7306461562e+02
2.7046787875e+02
2.6901991812e+02
2.6785607175e+02
2.6468369839e+02
2.5559432358e+02
2.3704368375e+02
2.0962256846e+02
1.7953433279e+02
1.5463759529e+02
1.3878430769e+02
1.3070201000e+02
1.2719397452e+02
1.2581188171e+02
1.2529425354e+02
1.2510528544e+02
1.2503729248e+02
1.2501308213e+02
1.2500454300e+02
1.2500156055e+02
1.2500052981e+02
1.2500017762e+02
1.2500005876e+02
1.2500001917e+02
1.2500000617e+02
1.2500000196e+02
1.2500000062e+02
1.2500000026e+02
9.9999999810e+02
9.9999999633e+02
9.9999999067e+02
9.9999997614e+02
9.9999994011e+02
9.9999985302e+02
9.9999964789e+02
9.9999917697e+02
9.9999812414e+02
9.9999583311e+02
9.9999098389e+02
9.9998100746e+02
9.9996107235e+02
9.9992241265e+02
9.9984971279e+02
9.9971725822e+02
9.9948365880e+02
9.9908522006e+02
9.9842852298e+02
9.9738344756e+02
9.9577858462e+02
9.9340141776e+02
9.9000544241e+02
9.8532525631e+02
9.7909869262e+02
9.7109284049e+02
9.6112919309e+02
9.4910294877e+02
9.3499286568e+02
9.1886050388e+02
9.0084021751e+02
8.8112300093e+02
8.5993785027e+02
8.3753382088e+02
8.1416490713e+02
7.9007873037e+02
7.6550911640e+02
7.4067208884e+02
7.1576456979e+02
6.9096506462e+02
6.6643571214e+02
6.4232522648e+02
6.1877239002e+02
5.9590984929e+02
5.7386799395e+02
5.5277864342e+02
5.3277809748e+02
5.1400880177e+02
4.9661843387e+02
4.8075470951e+02
4.6655389177e+02
4.5412134299e+02
4.4350409023e+02
4.3465846682e+02
4.2741935130e+02
4.2147951240e+02
4.1639539617e+02
4.1160275395e+02
4.0647675973e+02
4.0041145796e+02
3.9291772247e+02
3.8372094889e+02
3.7282765892e+02
3.6053373762e+02
3.4736700408e+02
3.3398208515e+02
3.2104095886e+02
3.0911130065e+02
2.9860171825e+02
2.8973834700e+02
2.8257902586e+02
2.7705999158e+02
2.7306461562e+02
2.7046787875e+02
2.6901991812e+02
2.6785607175e+02
2.6468369839e+02
2.5559432358e+02
2.3704368375e+02
2.0962256846e+02
1.7953433279e+02
1.5463759529e+02
1.3878430769e+02
1.3070201000e+02
1.2719397452e+02
1.2581188171e+02
1.2529425354e+02
1.2510528544e+02
1.2503729248e+02
1.2501308213e+02
1.2500454300e+02
1.2500156055e+02
1.2500052981e+02
1.2500017762e+02
1.2500005876e+02
1.2500001917e+02
1.2500000617e+02
1.2500000196e+02
1.2500000062e+02
1.2500000026e+02
9.9999999810e+02
9.9999999633e+02
9.9999999067e+02
9.9999997614e+02
9.9999994011e+02
9.9999985302e+02
9.9999964789e+02
9.9999917697e+02
9.9999812414e+02
9.9999583311e+02
9.9999098389e+02
9.9998100746e+02
9.9996107235e+02
9.9992241265e+02
9.9984971279e+02
9.9971725822e+02
9.9948365880e+02
9.9908522006e+02
9.9842852298e+02
9.9738344756e+02
9.9577858462e+02
9.9340141776e+02
9.9000544241e+02
9.8532525631e+02
9.7909869262e+02
9.7109284049e+02
9.6112919309e+02
9.4910294877e+02
9.3499286568e+02
9.1886050388e+02
9.0084021751e+02
8.8112300093e+02
8.5993785027e+02
8.3753382088e+02
8.1416490713e+02
7.9007873037e+02
7.6550911640e+02
7.4067208884e+02
7.1576456979e+02
6.9096506462e+02
6.6643571214e+02
6.4232522648e+02
6.1877239002e+02
5.9590984929e+02
5.7386799395e+02
5.5277864342e+02
5.3277809748e+02
5.1400880177e+02
4.9661843387e+02
4.8075470951e+02
4.6655389177e+02
4.5412134299e+02
4.4350409023e+02
4.3465846682e+02
4.2741935130e+02
4.2147951240e+02
4.1639539617e+02
4.1160275395e+02
4.0647675973e+02
4.0041145796e+02
3.9291772247e+02
3.8372094889e+02
3.7282765892e+02
3.6053373762e+02
3.4736700408e+02
3.3398208515e+02
3.2104095886e+02
3.0911130065e+02
2.9860171825e+02
2.8973834700e+02
2.8257902586e+02
2.7705999158e+02
2.7306461562e+02
2.7046787875e+02
2.6901991812e+02
2.6785607175e+02
2.6468369839e+02
2.5559432358e+02
2.3704368375e+02
2.0962256846e+02
1.7953433279e+02
1.5463759529e+02
1.3878430769e+02
1.3070201000e+02
1.2719397452e+02
1.2581188171e+02
1.2529425354e+02
1.2510528544e+02
1.2503729248e+02
1.2501308213e+02
1.2500454300e+02
1.2500156055e+02
1.2500052981e+02
1.2500017762e+02
1.2500005876e+02
1.2500001917e+02
1.2500000617e+02
1.2500000196e+02
1.2500000062e+02
1.2500000026e+02
9.9999999810e+02
9.9999999633e+02
9.9999999067e+02
9.9999997614e+02
9.9999994011e+02
9.9999985302e+02
9.9999964789e+02
9.9999917697e+02
9.9999812414e+02
9.9999583311e+02
9.9999098389e+02
9.9998100746e+02
9.9996107235e+02
9.9992241265e+02
9.9984971279e+02
9.9971725822e+02
9.9948365880e+02
9.9908522006e+02
9.9842852298e+02
9.9738344756e+02
9.9577858462e+02
9.9340141776e+02
9.9000544241e+02
9.8532525631e+02
9.7909869262e+02
9.7109284049e+02
9.6112919309e+02
9.4910294877e+02
9.3499286568e+02
9.1886050388e+02
9.0084021751e+02
8.8112300093e+02
8.5993785027e+02
8.3753382088e+02
8.1416490713e+02
7.9007873037e+02
7.6550911640e+02
7.4067208884e+02
7.1576456979e+02
6.9096506462e+02
6.6643571214e+02
6.4232522648e+02
6.1877239002e+02
5.9590984929e+02
5.7386799395e+02
5.5277864342e+02
5.3277809748e+02
5.1400880177e+02
4.9661843387e+02
4.8075470951e+02
4.6655389177e+02
4.5412134299e+02
4.4350409023e+02
4.3465846682e+02
4.2741935130e+02
4.2147951240e+02
4.1639539617e+02
4.1160275395e+02
4.0647675973e+02
4.0041145796e+02
3.9291772247e+02
3.8372094889e+02
3.7282765892e+02
3.6053373762e+02
3.4736700408e+02
3.3398208515e+02
3.2104095886e+02
3.0911130065e+02
2.9860171825e+02
2.8973834700e+02
2.8257902586e+02
2.7705999158e+02
2.7306461562e+02
2.7046787875e+02
2.6901991812e+02
2.6785607175e+02
2.6468369839e+02
2.5559432358e+02
2.3704368375e+02
2.0962256846e+02
1.7953433279e+02
1.5463759529e+02
1.3878430769e+02
1.3070201000e+02
1.2719397452e+02
1.2581188171e+02
1.2529425354e+02
1.2510528544e+02
1.2503729248e+02
1.2501308213e+02
1.2500454300e+02
1.2500156055e+02
1.2500052981e+02
1.2500017762e+02
1.2500005876e+02
1.2500001917e+02
1.2500000617e+02
1.2500000196e+02
1.2500000062e+02
1.2500000026e+02
9.9999999810e+02
9.9999999633e+02
9.9999999067e+02
9.9999997614e+02
9.9999994011e+02
9.9999985302e+02
9.9999964789e+02
9.9999917697e+02
9.9999812414e+02
9.9999583311e+02
9.9999098389e+02
9.9998100746e+02
9.9996107235e+02
9.9992241265e+02
9.9984971279e+02
9.9971725822e+02
9.9948365880e+02
9.9908522006e+02
9.9842852298e+02
9.9738344756e+02
9.9577858462e+02
9.9340141776e+02
9.9000544241e+02
9.8532525631e+02
9.7909869262e+02
9.7109284049e+02
9.6112919309e+02
9.4910294877e+02
9.3499286568e+02
9.1886050388e+02
9.0084021751e+02
8.8112300093e+02
8.5993785027e+02
8.3753382088e+02
8.1416490713e+02
7.9007873037e+02
7.6550911640e+02
7.4067208884e+02
7.1576456979e+02
6.9096506462e+02
6.6643571214e+02
6.4232522648e+02
6.1877239002e+02
5.9590984929e+02
5.7386799395e+02
5.5277864342e+02
5.3277809748e+02
5.1400880177e+02
4.9661843387e+02
4.8075470951e+02
4.6655389177e+02
4.5412134299e+02
4.4350409023e+02
4.3465846682e+02
4.2741935130e+02
4.2147951240e+02
4.1639539617e+02
4.1160275395e+02
4.0647675973e+02
4.0041145796e+02
3.9291772247e+02
3.8372094889e+02
3.7282765892e+02
3.6053373762e+02
3.4736700408e+02
3.3398208515e+02
3.2104095886e+02
3.0911130065e+02
2.9860171825e+02
2.8973834700e+02
2.8257902586e+02
2.7705999158e+02
2.7306461562e+02
2.7046787875e+02
2.6901991812e+02
2.6785607175e+02
2.6468369839e+02
2.5559432358e+02
2.3704368375e+02
2.0962256846e+02
1.7953433279e+02
1.5463759529e+02
1.3878430769e+02
1.3070201000e+02
1.2719397452e+02
1.2581188171e+02
1.2529425354e+02
1.2510528544e+02
1.2503729248e+02
1.2501308213e+02
1.2500454300e+02
1.2500156055e+02
1.2500052981e+02
1.2500017762e+02
1.2500005876e+02
1.2500001917e+02
1.2500000617e+02
1.2500000196e+02
1.2500000062e+02
1.2500000026e+02

SCALARS molarDensity float
LOOKUP_TABLE default
1.2977624108e+05
1.2977624085e+05
1.2977624012e+05
1.2977623823e+05
1.2977623355e+05
1.2977622225e+05
1.2977619563e+05
1.2977613452e+05
1.2977599789e+05
1.2977570056e+05
1.2977507125e+05
1.2977377655e+05
1.2977118944e+05
1.2976617233e+05
1.2975673762e+05
1.2973954816e+05
1.2970923251e+05
1.2965752462e+05
1.2957230095e+05
1.2943667499e+05
1.2922840191e+05
1.2891990213e+05
1.2847918521e+05
1.2787180825e+05
1.2706374822e+05
1.2602477882e+05
1.2473173411e+05
1.2317101332e+05
1.2133985977e+05
1.1924626250e+05
1.1690765746e+05
1.1434883121e+05
1.1159950198e+05
1.0869199126e+05
1.0565926147e+05
1.0253344798e+05
9.9344895828e+04
9.6121639745e+04
9.2889235543e+04
8.9670848974e+04
8.6487521808e+04
8.3358553602e+04
8.0301955014e+04
7.7334940410e+04
7.4474431272e+04
7.1737534629e+04
6.9141938952e+04
6.6706130302e+04
6.4449273722e+04
6.2390539201e+04
6.0547610451e+04
5.8934160999e+04
5.7556293843e+04
5.6408342085e+04
5.5468876882e+04
5.4698026916e+04
5.4038229421e+04
5.3416258328e+04
5.2751026064e+04
5.1963893999e+04
5.0991385172e+04
4.9797862466e+04
4.8384172238e+04
4.6788713340e+04
4.5079984151e+04
4.3342939681e+04
4.1663488953e+04
4.0115302750e+04
3.8751408649e+04
3.7601153641e+04
3.6672043854e+04
3.5955804330e+04
3.5437299455e+04
3.5100304704e+04
3.4912393816e+04
3.4761354209e+04
3.4349655518e+04
3.3170070619e+04
3.0762638308e+04
2.7204029032e+04
2.3299290898e+04
2.0068285884e+04
1.8010905808e+04
1.6962015591e+04
1.6506755932e+04
1.6327393122e+04
1.6260217284e+04
1.6235693715e+04
1.6226869843e+04
1.6223727916e+04
1.6222619740e+04
1.6222232689e+04
1.6222098922e+04
1.6222053217e+04
1.6222037792e+04
1.6222032654e+04
1.6222030966e+04
1.6222030420e+04
1.6222030247e+04
1.6222030199e+04
1.2977624108e+05
1.2977624085e+05
1.2977624012e+05
1.2977623823e+05
1.2977623355e+05
1.2977622225e+05
1.2977619563e+05
1.2977613452e+05
1.2977599789e+05
1.2977570056e+05
1.2977507125e+05
1.2977377655e+05
1.2977118944e+05
1.2976617233e+05
1.2975673762e+05
1.2973954816e+05
1.2970923251e+05
1.2965752462e+05
1.2957230095e+05
1.2943667499e+05
1.2922840191e+05
1.2891990213e+05
1.2847918521e+05
1.2787180825e+05
1.2706374822e+05
1.2602477882e+05
1.2473173411e+05
1.2317101332e+05
1.2133985977e+05
1.1924626250e+05
1.1690765746e+05
1.1434883121e+05
1.1159950198e+05
1.0869199126e+05
1.0565926147e+05
1.0253344798e+05
9.9344895828e+04
9.6121639745e+04
9.2889235543e+04
8.9670848974e+04
8.6487521808e+04
8.3358553602e+04
8.0301955014e+04
7.7334940410e+04
7.4474431272e+04
7.1737534629e+04
6.9141938952e+04
6.6706130302e+04
6.4449273722e+04
6.2390539201e+04
6.0547610451e+04
5.8934160999e+04
5.7556293843e+04
5.6408342085e+04
5.5468876882e+04
5.4698026916e+04
5.4038229421e+04
5.3416258328e+04
5.2751026064e+04
5.1963893999e+04
5.0991385172e+04
4.9797862466e+04
4.8384172238e+04
4.6788713340e+04
4.5079984151e+04
4.3342939681e+04
4.1663488953e+04
4.0115302750e+04
3.8751408649e+04