# vtk DataFile Version 2.0
Blank
ASCII
DATASET STRUCTURED_GRID
DIMENSIONS 101 11 2
POINTS 2222 float
0.0000000000e+00 0.0000000000e+00 0.0000000000e+00
1.0000000000e-02 0.0000000000e+00 0.0000000000e+00
2.0000000000e-02 0.0000000000e+00 0.0000000000e+00
3.0000000000e-02 0.0000000000e+00 0.0000000000e+00
4.0000000000e-02 0.0000000000e+00 0.0000000000e+00
5.0000000000e-02 0.0000000000e+00 0.0000000000e+00
6.0000000000e-02 0.0000000000e+00 0.0000000000e+00
7.0000000000e-02 0.0000000000e+00 0.0000000000e+00
8.0000000000e-02 0.0000000000e+00 0.0000000000e+00
9.0000000000e-02 0.0000000000e+00 0.0000000000e+00
1.0000000000e-01 0.0000000000e+00 0.0000000000e+00
1.1000000000e-01 0.0000000000e+00 0.0000000000e+00
1.2000000000e-01 0.0000000000e+00 0.0000000000e+00
1.3000000000e-01 0.0000000000e+00 0.0000000000e+00
1.4000000000e-01 0.0000000000e+00 0.0000000000e+00
1.5000000000e-01 0.0000000000e+00 0.0000000000e+00
1.6000000000e-01 0.0000000000e+00 0.0000000000e+00
1.7000000000e-01 0.0000000000e+00 0.0000000000e+00
1.8000000000e-01 0.0000000000e+00 0.0000000000e+00
1.9000000000e-01 0.0000000000e+00 0.0000000000e+00
2.0000000000e-01 0.0000000000e+00 0.0000000000e+00
2.1000000000e-01 0.0000000000e+00 0.0000000000e+00
2.2000000000e-01 0.0000000000e+00 0.0000000000e+00
2.3000000000e-01 0.0000000000e+00 0.0000000000e+00
2.4000000000e-01 0.0000000000e+00 0.0000000000e+00
2.5000000000e-01 0.0000000000e+00 0.0000000000e+00
2.6000000000e-01 0.0000000000e+00 0.0000000000e+00
2.7000000000e-01 0.0000000000e+00 0.0000000000e+00
2.8000000000e-01 0.0000000000e+00 0.0000000000e+00
2.9000000000e-01 0.0000000000e+00 0.0000000000e+00
3.0000000000e-01 0.0000000000e+00 0.0000000000e+00
3.1000000000e-01 0.0000000000e+00 0.0000000000e+00
3.2000000000e-01 0.0000000000e+00 0.0000000000e+00
3.3000000000e-01 0.0000000000e+00 0.0000000000e+00
3.4000000000e-01 0.0000000000e+00 0.0000000000e+00
3.5000000000e-01 0.0000000000e+00 0.0000000000e+00
3.6000000000e-01 0.0000000000e+00 0.0000000000e+00
3.7000000000e-01 0.0000000000e+00 0.0000000000e+00
3.8000000000e-01 0.0000000000e+00 0.0000000000e+00
3.9000000000e-01 0.0000000000e+00 0.0000000000e+00
4.0000000000e-01 0.0000000000e+00 0.0000000000e+00
4.1000000000e-01 0.0000000000e+00 0.0000000000e+00
4.2000000000e-01 0.0000000000e+00 0.0000000000e+00
4.3000000000e-01 0.0000000000e+00 0.0000000000e+00
4.4000000000e-01 0.0000000000e+00 0.0000000000e+00
4.5000000000e-01 0.0000000000e+00 0.0000000000e+00
4.6000000000e-01 0.0000000000e+00 0.0000000000e+00
4.7000000000e-01 0.0000000000e+00 0.0000000000e+00
4.8000000000e-01 0.0000000000e+00 0.0000000000e+00
4.9000000000e-01 0.0000000000e+00 0.0000000000e+00
5.0000000000e-01 0.0000000000e+00 0.0000000000e+00
5.1000000000e-01 0.0000000000e+00 0.0000000000e+00
5.2000000000e-01 0.0000000000e+00 0.0000000000e+00
5.3000000000e-01 0.0000000000e+00 0.0000000000e+00
5.4000000000e-01 0.0000000000e+00 0.0000000000e+00
5.5000000000e-01 0.0000000000e+00 0.0000000000e+00
5.6000000000e-01 0.0000000000e+00 0.0000000000e+00
5.7000000000e-01 0.0000000000e+00 0.0000000000e+00
5.8000000000e-01 0.0000000000e+00 0.0000000000e+00
5.9000000000e-01 0.0000000000e+00 0.0000000000e+00
6.0000000000e-01 0.0000000000e+00 0.0000000000e+00
6.1000000000e-01 0.0000000000e+00 0.0000000000e+00
6.2000000000e-01 0.0000000000e+00 0.0000000000e+00
6.3000000000e-01 0.0000000000e+00 0.0000000000e+00
6.4000000000e-01 0.0000000000e+00 0.0000000000e+00
6.5000000000e-01 0.0000000000e+00 0.0000000000e+00
6.6000000000e-01 0.0000000000e+00 0.0000000000e+00
6.7000000000e-01 0.0000000000e+00 0.0000000000e+00
6.8000000000e-01 0.0000000000e+00 0.0000000000e+00
6.9000000000e-01 0.0000000000e+00 0.0000000000e+00
7.0000000000e-01 0.0000000000e+00 0.0000000000e+00
7.1000000000e-01 0.0000000000e+00 0.0000000000e+00
7.2000000000e-01 0.0000000000e+00 0.0000000000e+00
7.3000000000e-01 0.0000000000e+00 0.0000000000e+00
7.4000000000e-01 0.0000000000e+00 0.0000000000e+00
7.5000000000e-01 0.0000000000e+00 0.0000000000e+00
7.6000000000e-01 0.0000000000e+00 0.0000000000e+00
7.7000000000e-01 0.0000000000e+00 0.0000000000e+00
7.8000000000e-01 0.0000000000e+00 0.0000000000e+00
7.9000000000e-01 0.0000000000e+00 0.0000000000e+00
8.0000000000e-01 0.0000000000e+00 0.0000000000e+00
8.1000000000e-01 0.0000000000e+00 0.0000000000e+00
8.2000000000e-01 0.0000000000e+00 0.0000000000e+00
8.3000000000e-01 0.0000000000e+00 0.0000000000e+00
8.4000000000e-01 0.0000000000e+00 0.0000000000e+00
8.5000000000e-01 0.0000000000e+00 0.0000000000e+00
8.6000000000e-01 0.0000000000e+00 0.0000000000e+00
8.7000000000e-01 0.0000000000e+00 0.0000000000e+00
8.8000000000e-01 0.0000000000e+00 0.0000000000e+00
8.9000000000e-01 0.0000000000e+00 0.0000000000e+00
9.0000000000e-01 0.0000000000e+00 0.0000000000e+00
9.1000000000e-01 0.0000000000e+00 0.0000000000e+00
9.2000000000e-01 0.0000000000e+00 0.0000000000e+00
9.3000000000e-01 0.0000000000e+00 0.0000000000e+00
9.4000000000e-01 0.0000000000e+00 0.0000000000e+00
9.5000000000e-01 0.0000000000e+00 0.0000000000e+00
9.6000000000e-01 0.0000000000e+00 0.0000000000e+00
9.7000000000e-01 0.0000000000e+00 0.0000000000e+00
9.8000000000e-01 0.0000000000e+00 0.0000000000e+00
9.9000000000e-01 0.0000000000e+00 0.0000000000e+00
1.0000000000e+00 0.0000000000e+00 0.0000000000e+00
0.0000000000e+00 1.0000000000e-03 0.0000000000e+00
1.0000000000e-02 1.0000000000e-03 0.0000000000e+00
2.0000000000e-02 1.0000000000e-03 0.0000000000e+00
3.0000000000e-02 1.0000000000e-03 0.0000000000e+00
4.0000000000e-02 1.0000000000e-03 0.0000000000e+00
5.0000000000e-02 1.0000000000e-03 0.0000000000e+00
6.0000000000e-02 1.0000000000e-03 0.0000000000e+00
7.0000000000e-02 1.0000000000e-03 0.0000000000e+00
8.0000000000e-02 1.0000000000e-03 0.0000000000e+00
9.0000000000e-02 1.0000000000e-03 0.0000000000e+00
1.0000000000e-01 1.0000000000e-03 0.0000000000e+00
1.1000000000e-01 1.0000000000e-03 0.0000000000e+00
1.2000000000e-01 1.0000000000e-03 0.0000000000e+00
1.3000000000e-01 1.0000000000e-03 0.0000000000e+00
1.4000000000e-01 1.0000000000e-03 0.0000000000e+00
1.5000000000e-01 1.0000000000e-03 0.0000000000e+00
1.6000000000e-01 1.0000000000e-03 0.0000000000e+00
1.7000000000e-01 1.0000000000e-03 0.0000000000e+00
1.8000000000e-01 1.0000000000e-03 0.0000000000e+00
1.9000000000e-01 1.0000000000e-03 0.0000000000e+00
2.0000000000e-01 1.0000000000e-03 0.0000000000e+00
2.1000000000e-01 1.0000000000e-03 0.0000000000e+00
2.2000000000e-01 1.0000000000e-03 0.0000000000e+00
2.3000000000e-01 1.0000000000e-03 0.0000000000e+00
2.4000000000e-01 1.0000000000e-03 0.0000000000e+00
2.5000000000e-01 1.0000000000e-03 0.0000000000e+00
2.6000000000e-01 1.0000000000e-03 0.0000000000e+00
2.7000000000e-01 1.0000000000e-03 0.0000000000e+00
2.8000000000e-01 1.0000000000e-03 0.0000000000e+00
2.9000000000e-01 1.0000000000e-03 0.0000000000e+00
3.0000000000e-01 1.0000000000e-03 0.0000000000e+00
3.1000000000e-01 1.0000000000e-03 0.0000000000e+00
3.2000000000e-01 1.0000000000e-03 0.0000000000e+00
3.3000000000e-01 1.0000000000e-03 0.0000000000e+00
3.4000000000e-01 1.0000000000e-03 0.0000000000e+00
3.5000000000e-01 1.0000000000e-03 0.0000000000e+00
3.6000000000e-01 1.0000000000e-03 0.0000000000e+00
3.7000000000e-01 1.0000000000e-03 0.0000000000e+00
3.8000000000e-01 1.0000000000e-03 0.0000000000e+00
3.9000000000e-01 1.0000000000e-03 0.0000000000e+00
4.0000000000e-01 1.0000000000e-03 0.0000000000e+00
4.1000000000e-01 1.0000000000e-03 0.0000000000e+00
4.2000000000e-01 1.0000000000e-03 0.0000000000e+00
4.3000000000e-01 1.0000000000e-03 0.0000000000e+00
4.4000000000e-01 1.0000000000e-03 0.0000000000e+00
4.5000000000e-01 1.0000000000e-03 0.0000000000e+00
4.6000000000e-01 1.0000000000e-03 0.0000000000e+00
4.7000000000e-01 1.0000000000e-03 0.0000000000e+00
4.8000000000e-01 1.0000000000e-03 0.0000000000e+00
4.9000000000e-01 1.0000000000e-03 0.0000000000e+00
5.0000000000e-01 1.0000000000e-03 0.0000000000e+00
5.1000000000e-01 1.0000000000e-03 0.0000000000e+00
5.2000000000e-01 1.0000000000e-03 0.0000000000e+00
5.3000000000e-01 1.0000000000e-03 0.0000000000e+00
5.4000000000e-01 1.0000000000e-03 0.0000000000e+00
5.5000000000e-01 1.0000000000e-03 0.0000000000e+00
5.6000000000e-01 1.0000000000e-03 0.0000000000e+00
5.7000000000e-01 1.0000000000e-03 0.0000000000e+00
5.8000000000e-01 1.0000000000e-03 0.0000000000e+00
5.9000000000e-01 1.0000000000e-03 0.0000000000e+00
6.0000000000e-01 1.0000000000e-03 0.0000000000e+00
6.1000000000e-01 1.0000000000e-03 0.0000000000e+00
6.2000000000e-01 1.0000000000e-03 0.0000000000e+00
6.3000000000e-01 1.0000000000e-03 0.0000000000e+00
6.4000000000e-01 1.0000000000e-03 0.0000000000e+00
6.5000000000e-01 1.0000000000e-03 0.0000000000e+00
6.6000000000e-01 1.0000000000e-03 0.0000000000e+00
6.7000000000e-01 1.0000000000e-03 0.0000000000e+00
6.8000000000e-01 1.0000000000e-03 0.0000000000e+00
6.9000000000e-01 1.0000000000e-03 0.0000000000e+00
7.0000000000e-01 1.0000000000e-03 0.0000000000e+00
7.1000000000e-01 1.0000000000e-03 0.0000000000e+00
7.2000000000e-01 1.0000000000e-03 0.0000000000e+00
7.3000000000e-01 1.0000000000e-03 0.0000000000e+00
7.4000000000e-01 1.0000000000e-03 0.0000000000e+00
7.5000000000e-01 1.0000000000e-03 0.0000000000e+00
7.6000000000e-01 1.0000000000e-03 0.0000000000e+00
7.7000000000e-01 1.0000000000e-03 0.0000000000e+00
7.8000000000e-01 1.0000000000e-03 0.0000000000e+00
7.9000000000e-01 1.0000000000e-03 0.0000000000e+00
8.0000000000e-01 1.0000000000e-03 0.0000000000e+00
8.1000000000e-01 1.0000000000e-03 0.0000000000e+00
8.2000000000e-01 1.0000000000e-03 0.0000000000e+00
8.3000000000e-01 1.0000000000e-03 0.0000000000e+00
8.4000000000e-01 1.0000000000e-03 0.0000000000e+00
8.5000000000e-01 1.0000000000e-03 0.0000000000e+00
8.6000000000e-01 1.0000000000e-03 0.0000000000e+00
8.7000000000e-01 1.0000000000e-03 0.0000000000e+00
8.8000000000e-01 1.0000000000e-03 0.0000000000e+00
8.9000000000e-01 1.0000000000e-03 0.0000000000e+00
9.0000000000e-01 1.0000000000e-03 0.0000000000e+00
9.1000000000e-01 1.0000000000e-03 0.0000000000e+00
9.2000000000e-01 1.0000000000e-03 0.0000000000e+00
[...]
CELL_DATA 1000

SCALARS massDensity float
LOOKUP_TABLE default
9.9999999996e+02
9.9999999996e+02
9.9999999996e+02
9.9999999996e+02
9.9999999996e+02
9.9999999996e+02
9.9999999996e+02
9.9999999996e+02
9.9999999996e+02
9.9999999996e+02
9.9999999996e+02
9.9999999996e+02
9.9999999996e+02
9.9999999996e+02
9.9999999996e+02
9.9999999995e+02
9.9999999992e+02
9.9999999981e+02
9.9999999938e+02
9.9999999776e+02
9.9999999185e+02
9.9999997114e+02
9.9999990153e+02
9.9999967712e+02
9.9999898427e+02
9.9999693860e+02
9.9999117220e+02
9.9997568105e+02
9.9993609648e+02
9.9984008834e+02
9.9961957654e+02
9.9914112475e+02
9.9816289015e+02
9.9628270391e+02
9.9289269384e+02
9.8716747329e+02
9.7811596663e+02
9.6471133936e+02
9.4607926365e+02
9.2168923878e+02
8.9148257367e+02
8.5589563092e+02
8.1578286735e+02
7.7228162286e+02
7.2667055837e+02
6.8025909264e+02
6.3432117281e+02
5.9006591545e+02
5.4862352020e+02
5.1101174199e+02
4.7803254885e+02
4.5004203974e+02
4.2659935097e+02
4.0639335985e+02
3.8743828496e+02
3.6817558511e+02
3.4831174985e+02
3.2885455672e+02
3.1136356259e+02
2.9677379738e+02
2.8404846580e+02
2.6939725923e+02
2.4804481240e+02
2.1857004133e+02
1.8582625616e+02
1.5801095642e+02
1.4002459233e+02
1.3092912402e+02
1.2712237760e+02
1.2571394476e+02
1.2523005003e+02
1.2507156601e+02
1.2502154582e+02
1.2500627941e+02
1.2500177104e+02
1.2500048319e+02
1.2500012749e+02
1.2500003253e+02
1.2500000803e+02
1.2500000192e+02
1.2500000045e+02
1.2500000010e+02
1.2500000003e+02
1.2500000001e+02
1.2500000001e+02
1.2500000000e+02
1.2500000000e+02
1.2500000000e+02
1.2500000000e+02
1.2500000000e+02
1.2500000000e+02
1.2500000000e+02
1.2500000000e+02
1.2500000000e+02
1.2500000000e+02
1.2500000000e+02
1.2500000000e+02
1.2500000000e+02
1.2500000000e+02
1.2500000000e+02
9.9999999996e+02
9.9999999996e+02
9.9999999996e+02
9.9999999996e+02
9.9999999996e+02
9.9999999996e+02
9.9999999996e+02
9.9999999996e+02
9.9999999996e+02
9.9999999996e+02
9.9999999996e+02
9.9999999996e+02
9.9999999996e+02
9.9999999996e+02
9.9999999996e+02
9.9999999995e+02
9.9999999992e+02
9.9999999981e+02
9.9999999938e+02
9.9999999776e+02
9.9999999185e+02
9.9999997114e+02
9.9999990153e+02
9.9999967712e+02
9.9999898427e+02
9.9999693860e+02
9.9999117220e+02
9.9997568105e+02
9.9993609648e+02
9.9984008834e+02
9.9961957654e+02
9.9914112475e+02
9.9816289015e+02
9.9628270391e+02
9.9289269384e+02
9.8716747329e+02
9.7811596663e+02
9.6471133936e+02
9.4607926365e+02
9.2168923878e+02
8.9148257367e+02
8.5589563092e+02
8.1578286735e+02
7.7228162286e+02
7.2667055837e+02
6.8025909264e+02
6.3432117281e+02
5.9006591545e+02
5.4862352020e+02
5.1101174199e+02
4.7803254885e+02
4.5004203974e+02
4.2659935097e+02
4.0639335985e+02
3.8743828496e+02
3.6817558511e+02
3.4831174985e+02
3.2885455672e+02
3.1136356259e+02
2.9677379738e+02
2.8404846580e+02
2.6939725923e+02
2.4804481240e+02
2.1857004133e+02
1.8582625616e+02
1.5801095642e+02
1.4002459233e+02
1.3092912402e+02
1.2712237760e+02
1.2571394476e+02
1.2523005003e+02
1.2507156601e+02
1.2502154582e+02
1.2500627941e+02
1.2500177104e+02
1.2500048319e+02
1.2500012749e+02
1.2500003253e+02
1.2500000803e+02
1.2500000192e+02
1.2500000045e+02
1.2500000010e+02
1.2500000003e+02
1.2500000001e+02
1.2500000001e+02
1.2500000000e+02
1.2500000000e+02
1.2500000000e+02
1.2500000000e+02
1.2500000000e+02
1.2500000000e+02
1.2500000000e+02
1.2500000000e+02
1.2500000000e+02
1.2500000000e+02
1.2500000000e+02
1.2500000000e+02
1.2500000000e+02
1.2500000000e+02
1.2500000000e+02
9.9999999996e+02
9.9999999996e+02
9.9999999996e+02
9.9999999996e+02
9.9999999996e+02
9.9999999996e+02
9.9999999996e+02
9.9999999996e+02
9.9999999996e+02
9.9999999996e+02
9.9999999996e+02
9.9999999996e+02
9.9999999996e+02
9.9999999996e+02
9.9999999996e+02
9.9999999995e+02
9.9999999992e+02
9.9999999981e+02
9.9999999938e+02
9.9999999776e+02
9.9999999185e+02
9.9999997114e+02
9.9999990153e+02
9.9999967712e+02
9.9999898427e+02
9.9999693860e+02
9.9999117220e+02
9.9997568105e+02
9.9993609648e+02
9.9984008834e+02
9.9961957654e+02
9.9914112475e+02
9.9816289015e+02
9.9628270391e+02
9.9289269384e+02
9.8716747329e+02
9.7811596663e+02
9.6471133936e+02
9.4607926365e+02
9.2168923878e+02
8.9148257367e+02
8.5589563092e+02
8.1578286735e+02
7.7228162286e+02
7.2667055837e+02
6.8025909264e+02
6.3432117281e+02
5.9006591545e+02
5.4862352020e+02
5.1101174199e+02
4.7803254885e+02
4.5004203974e+02
4.2659935097e+02
4.0639335985e+02
3.8743828496e+02
3.6817558511e+02
3.4831174985e+02
3.2885455672e+02
3.1136356259e+02
2.9677379738e+02
2.8404846580e+02
2.6939725923e+02
2.4804481240e+02
2.1857004133e+02
1.8582625616e+02
1.5801095642e+02
1.4002459233e+02
1.3092912402e+02
1.2712237760e+02
1.2571394476e+02
1.2523005003e+02
1.2507156601e+02
1.2502154582e+02
1.2500627941e+02
1.2500177104e+02
1.2500048319e+02
1.2500012749e+02
1.2500003253e+02
1.2500000803e+02
1.2500000192e+02
1.2500000045e+02
1.2500000010e+02
1.2500000003e+02
1.2500000001e+02
1.2500000001e+02
1.2500000000e+02
1.2500000000e+02
1.2500000000e+02
1.2500000000e+02
1.2500000000e+02
1.2500000000e+02
1.2500000000e+02
1.2500000000e+02
1.2500000000e+02
1.2500000000e+02
1.2500000000e+02
1.2500000000e+02
1.2500000000e+02
1.2500000000e+02
1.2500000000e+02
9.9999999996e+02
9.9999999996e+02
9.9999999996e+02
9.9999999996e+02
9.9999999996e+02
9.9999999996e+02
9.9999999996e+02
9.9999999996e+02
9.9999999996e+02
9.9999999996e+02
9.9999999996e+02
9.9999999996e+02
9.9999999996e+02
9.9999999996e+02
9.9999999996e+02
9.9999999995e+02
9.9999999992e+02
9.9999999981e+02
9.9999999938e+02
9.9999999776e+02
9.9999999185e+02
9.9999997114e+02
9.9999990153e+02
9.9999967712e+02
9.9999898427e+02
9.9999693860e+02
9.9999117220e+02
9.9997568105e+02
9.9993609648e+02
9.9984008834e+02
9.9961957654e+02
9.9914112475e+02
9.9816289015e+02
9.9628270391e+02
9.9289269384e+02
9.8716747329e+02
9.7811596663e+02
9.6471133936e+02
9.4607926365e+02
9.2168923878e+02
8.9148257367e+02
8.5589563092e+02
8.1578286735e+02
7.7228162286e+02
7.2667055837e+02
6.8025909264e+02
6.3432117281e+02
5.9006591545e+02
5.4862352020e+02
5.1101174199e+02
4.7803254885e+02
4.5004203974e+02
4.2659935097e+02
4.0639335985e+02
3.8743828496e+02
3.6817558511e+02
3.4831174985e+02
3.2885455672e+02
3.1136356259e+02
2.9677379738e+02
2.8404846580e+02
2.6939725923e+02
2.4804481240e+02
2.1857004133e+02
1.8582625616e+02
1.5801095642e+02
1.4002459233e+02
1.3092912402e+02
1.2712237760e+02
1.2571394476e+02
1.2523005003e+02
1.2507156601e+02
1.2502154582e+02
1.2500627941e+02
1.2500177104e+02
1.2500048319e+02
1.2500012749e+02
1.2500003253e+02
1.2500000803e+02
1.2500000192e+02
1.2500000045e+02
1.2500000010e+02
1.2500000003e+02
1.2500000001e+02
1.2500000001e+02
1.2500000000e+02
1.2500000000e+02
1.2500000000e+02
1.2500000000e+02
1.2500000000e+02
1.2500000000e+02
1.2500000000e+02
1.2500000000e+02
1.2500000000e+02
1.2500000000e+02
1.2500000000e+02
1.2500000000e+02
1.2500000000e+02
1.2500000000e+02
1.2500000000e+02
9.9999999996e+02
9.9999999996e+02
9.9999999996e+02
9.9999999996e+02
9.9999999996e+02
9.9999999996e+02
9.9999999996e+02
9.9999999996e+02
9.9999999996e+02
9.9999999996e+02
9.9999999996e+02
9.9999999996e+02
9.9999999996e+02
9.9999999996e+02
9.9999999996e+02
9.9999999995e+02
9.9999999992e+02
9.9999999981e+02
9.9999999938e+02
9.9999999776e+02
9.9999999185e+02
9.9999997114e+02
9.9999990153e+02
9.9999967712e+02
9.9999898427e+02
9.9999693860e+02
9.9999117220e+02
9.9997568105e+02
9.9993609648e+02
9.9984008834e+02
9.9961957654e+02
9.9914112475e+02
9.9816289015e+02
9.9628270391e+02
9.9289269384e+02
9.8716747329e+02
9.7811596663e+02
9.6471133936e+02
9.4607926365e+02
9.2168923878e+02
8.9148257367e+02
8.5589563092e+02
8.1578286735e+02
7.7228162286e+02
7.2667055837e+02
6.8025909264e+02
6.3432117281e+02
5.9006591545e+02
5.4862352020e+02
5.1101174199e+02
4.7803254885e+02
4.5004203974e+02
4.2659935097e+02
4.0639335985e+02
3.8743828496e+02
3.6817558511e+02
3.4831174985e+02
3.2885455672e+02
3.1136356259e+02
2.9677379738e+02
2.8404846580e+02
2.6939725923e+02
2.4804481240e+02
2.1857004133e+02
1.8582625616e+02
1.5801095642e+02
1.4002459233e+02
1.3092912402e+02
1.2712237760e+02
1.2571394476e+02
1.2523005003e+02
1.2507156601e+02
1.2502154582e+02
1.2500627941e+02
1.2500177104e+02
1.2500048319e+02
1.2500012749e+02
1.2500003253e+02
1.2500000803e+02
1.2500000192e+02
1.2500000045e+02
1.2500000010e+02
1.2500000003e+02
1.2500000001e+02
1.2500000001e+02
1.2500000000e+02
1.2500000000e+02
1.2500000000e+02
1.2500000000e+02
1.2500000000e+02
1.2500000000e+02
1.2500000000e+02
1.2500000000e+02
1.2500000000e+02
1.2500000000e+02
1.2500000000e+02
1.2500000000e+02
1.2500000000e+02
1.2500000000e+02
1.2500000000e+02
9.9999999996e+02
9.9999999996e+02
9.9999999996e+02
9.9999999996e+02
9.9999999996e+02
9.9999999996e+02
9.9999999996e+02
9.9999999996e+02
9.9999999996e+02
9.9999999996e+02
9.9999999996e+02
9.9999999996e+02
9.9999999996e+02
9.9999999996e+02
9.9999999996e+02
9.9999999995e+02
9.9999999992e+02
9.9999999981e+02
9.9999999938e+02
9.9999999776e+02
9.9999999185e+02
9.9999997114e+02
9.9999990153e+02
9.9999967712e+02
9.9999898427e+02
9.9999693860e+02
9.9999117220e+02
9.9997568105e+02
9.9993609648e+02
9.9984008834e+02
9.9961957654e+02
9.9914112475e+02
9.9816289015e+02
9.9628270391e+02
9.9289269384e+02
9.8716747329e+02
9.7811596663e+02
9.6471133936e+02
9.4607926365e+02
9.2168923878e+02
8.9148257367e+02
8.5589563092e+02
8.1578286735e+02
7.7228162286e+02
7.2667055837e+02
6.8025909264e+02
6.3432117281e+02
5.9006591545e+02
5.4862352020e+02
5.1101174199e+02
4.7803254885e+02
4.5004203974e+02
4.2659935097e+02
4.0639335985e+02
3.8743828496e+02
3.6817558511e+02
3.4831174985e+02
3.2885455672e+02
3.1136356259e+02
2.9677379738e+02
2.8404846580e+02
2.6939725923e+02
2.4804481240e+02
2.1857004133e+02
1.8582625616e+02
1.5801095642e+02
1.4002459233e+02
1.3092912402e+02
1.2712237760e+02
1.2571394476e+02
1.2523005003e+02
1.2507156601e+02
1.2502154582e+02
1.2500627941e+02
1.2500177104e+02
1.2500048319e+02
1.2500012749e+02
1.2500003253e+02
1.2500000803e+02
1.2500000192e+02
1.2500000045e+02
1.2500000010e+02
1.2500000003e+02
1.2500000001e+02
1.2500000001e+02
1.2500000000e+02
1.2500000000e+02
1.2500000000e+02
1.2500000000e+02
1.2500000000e+02
1.2500000000e+02
1.2500000000e+02
1.2500000000e+02
1.2500000000e+02
1.2500000000e+02
1.2500000000e+02
1.2500000000e+02
1.2500000000e+02
1.2500000000e+02
1.2500000000e+02
9.9999999996e+02
9.9999999996e+02
9.9999999996e+02
9.9999999996e+02
9.9999999996e+02
9.9999999996e+02
9.9999999996e+02
9.9999999996e+02
9.9999999996e+02
9.9999999996e+02
9.9999999996e+02
9.9999999996e+02
9.9999999996e+02
9.9999999996e+02
9.9999999996e+02
9.9999999995e+02
9.9999999992e+02
9.9999999981e+02
9.9999999938e+02
9.9999999776e+02
9.9999999185e+02
9.9999997114e+02
9.9999990153e+02
9.9999967712e+02
9.9999898427e+02
9.9999693860e+02
9.9999117220e+02
9.9997568105e+02
9.9993609648e+02
9.9984008834e+02
9.9961957654e+02
9.9914112475e+02
9.9816289015e+02
9.9628270391e+02
9.9289269384e+02
9.8716747329e+02
9.7811596663e+02
9.6471133936e+02
9.4607926365e+02
9.2168923878e+02
8.9148257367e+02
8.5589563092e+02
8.1578286735e+02
7.7228162286e+02
7.2667055837e+02
6.8025909264e+02
6.3432117281e+02
5.9006591545e+02
5.4862352020e+02
5.1101174199e+02
4.7803254885e+02
4.5004203974e+02
4.2659935097e+02
4.0639335985e+02
3.8743828496e+02
3.6817558511e+02
3.4831174985e+02
3.2885455672e+02
3.1136356259e+02
2.9677379738e+02
2.8404846580e+02
2.6939725923e+02
2.4804481240e+02
2.1857004133e+02
1.8582625616e+02
1.5801095642e+02
1.4002459233e+02
1.3092912402e+02
1.2712237760e+02
1.2571394476e+02
1.2523005003e+02
1.2507156601e+02
1.2502154582e+02
1.2500627941e+02
1.2500177104e+02
1.2500048319e+02
1.2500012749e+02
1.2500003253e+02
1.2500000803e+02
1.2500000192e+02
1.2500000045e+02
1.2500000010e+02
1.2500000003e+02
1.2500000001e+02
1.2500000001e+02
1.2500000000e+02
1.2500000000e+02
1.2500000000e+02
1.2500000000e+02
1.2500000000e+02
1.2500000000e+02
1.2500000000e+02
1.2500000000e+02
1.2500000000e+02
1.2500000000e+02
1.2500000000e+02
1.2500000000e+02
1.2500000000e+02
1.2500000000e+02
1.2500000000e+02
9.9999999996e+02
9.9999999996e+02
9.9999999996e+02
9.9999999996e+02
9.9999999996e+02
9.9999999996e+02
9.9999999996e+02
9.9999999996e+02
9.9999999996e+02
9.9999999996e+02
9.9999999996e+02
9.9999999996e+02
9.9999999996e+02
9.9999999996e+02
9.9999999996e+02
9.9999999995e+02
9.9999999992e+02
9.9999999981e+02
9.9999999938e+02
9.9999999776e+02
9.9999999185e+02
9.9999997114e+02
9.9999990153e+02
9.9999967712e+02
9.9999898427e+02
9.9999693860e+02
9.9999117220e+02
9.9997568105e+02
9.9993609648e+02
9.9984008834e+02
9.9961957654e+02
9.9914112475e+02
9.9816289015e+02
9.9628270391e+02
9.9289269384e+02
9.8716747329e+02
9.7811596663e+02
9.6471133936e+02
9.4607926365e+02
9.2168923878e+02
8.9148257367e+02
8.5589563092e+02
8.1578286735e+02
7.7228162286e+02
7.2667055837e+02
6.8025909264e+02
6.3432117281e+02
5.9006591545e+02
5.4862352020e+02
5.1101174199e+02
4.7803254885e+02
4.5004203974e+02
4.2659935097e+02
4.0639335985e+02
3.8743828496e+02
3.6817558511e+02
3.4831174985e+02
3.2885455672e+02
3.1136356259e+02
2.9677379738e+02
2.8404846580e+02
2.6939725923e+02
2.4804481240e+02
2.1857004133e+02
1.8582625616e+02
1.5801095642e+02
1.4002459233e+02
1.3092912402e+02
1.2712237760e+02
1.2571394476e+02
1.2523005003e+02
1.2507156601e+02
1.2502154582e+02
1.2500627941e+02
1.2500177104e+02
1.2500048319e+02
1.2500012749e+02
1.2500003253e+02
1.2500000803e+02
1.2500000192e+02
1.2500000045e+02
1.2500000010e+02
1.2500000003e+02
1.2500000001e+02
1.2500000001e+02
1.2500000000e+02
1.2500000000e+02
1.2500000000e+02
1.2500000000e+02
1.2500000000e+02
1.2500000000e+02
1.2500000000e+02
1.2500000000e+02
1.2500000000e+02
1.2500000000e+02
1.2500000000e+02
1.2500000000e+02
1.2500000000e+02
1.2500000000e+02
1.2500000000e+02
9.9999999996e+02
9.9999999996e+02
9.9999999996e+02
9.9999999996e+02
9.9999999996e+02
9.9999999996e+02
9.9999999996e+02
9.9999999996e+02
9.9999999996e+02
9.9999999996e+02
9.9999999996e+02
9.9999999996e+02
9.9999999996e+02
9.9999999996e+02
9.9999999996e+02
9.9999999995e+02
9.9999999992e+02
9.9999999981e+02
9.9999999938e+02
9.9999999776e+02
9.9999999185e+02
9.9999997114e+02
9.9999990153e+02
9.9999967712e+02
9.9999898427e+02
9.9999693860e+02
9.9999117220e+02
9.9997568105e+02
9.9993609648e+02
9.9984008834e+02
9.9961957654e+02
9.9914112475e+02
9.9816289015e+02
9.9628270391e+02
9.9289269384e+02
9.8716747329e+02
9.7811596663e+02
9.6471133936e+02
9.4607926365e+02
9.2168923878e+02
8.9148257367e+02
8.5589563092e+02
8.1578286735e+02
7.7228162286e+02
7.2667055837e+02
6.8025909264e+02
6.3432117281e+02
5.9006591545e+02
5.4862352020e+02
5.1101174199e+02
4.7803254885e+02
4.5004203974e+02
4.2659935097e+02
4.0639335985e+02
3.8743828496e+02
3.6817558511e+02
3.4831174985e+02
3.2885455672e+02
3.1136356259e+02
2.9677379738e+02
2.8404846580e+02
2.6939725923e+02
2.4804481240e+02
2.1857004133e+02
1.8582625616e+02
1.5801095642e+02
1.4002459233e+02
1.3092912402e+02
1.2712237760e+02
1.2571394476e+02
1.2523005003e+02
1.2507156601e+02
1.2502154582e+02
1.2500627941e+02
1.2500177104e+02
1.2500048319e+02
1.2500012749e+02
1.2500003253e+02
1.2500000803e+02
1.2500000192e+02
1.2500000045e+02
1.2500000010e+02
1.2500000003e+02
1.2500000001e+02
1.2500000001e+02
1.2500000000e+02
1.2500000000e+02
1.2500000000e+02
1.2500000000e+02
1.2500000000e+02
1.2500000000e+02
1.2500000000e+02
1.2500000000e+02
1.2500000000e+02
1.2500000000e+02
1.2500000000e+02
1.2500000000e+02
1.2500000000e+02
1.2500000000e+02
1.2500000000e+02
9.9999999996e+02
9.9999999996e+02
9.9999999996e+02
9.9999999996e+02
9.9999999996e+02
9.9999999996e+02
9.9999999996e+02
9.9999999996e+02
9.9999999996e+02
9.9999999996e+02
9.9999999996e+02
9.9999999996e+02
9.9999999996e+02
9.9999999996e+02
9.9999999996e+02
9.9999999995e+02
9.9999999992e+02
9.9999999981e+02
9.9999999938e+02
9.9999999776e+02
9.9999999185e+02
9.9999997114e+02
9.9999990153e+02
9.9999967712e+02
9.9999898427e+02
9.9999693860e+02
9.9999117220e+02
9.9997568105e+02
9.9993609648e+02
9.9984008834e+02
9.9961957654e+02
9.9914112475e+02
9.9816289015e+02
9.9628270391e+02
9.9289269384e+02
9.8716747329e+02
9.7811596663e+02
9.6471133936e+02
9.4607926365e+02
9.2168923878e+02
8.9148257367e+02
8.5589563092e+02
8.1578286735e+02
7.7228162286e+02
7.2667055837e+02
6.8025909264e+02
6.3432117281e+02
5.9006591545e+02
5.4862352020e+02
5.1101174199e+02
4.7803254885e+02
4.5004203974e+02
4.2659935097e+02
4.0639335985e+02
3.8743828496e+02
3.6817558511e+02
3.4831174985e+02
3.2885455672e+02
3.1136356259e+02
2.9677379738e+02
2.8404846580e+02
2.6939725923e+02
2.4804481240e+02
2.1857004133e+02
1.8582625616e+02
1.5801095642e+02
1.4002459233e+02
1.3092912402e+02
1.2712237760e+02
1.2571394476e+02
1.2523005003e+02
1.2507156601e+02
1.2502154582e+02
1.2500627941e+02
1.2500177104e+02
1.2500048319e+02
1.2500012749e+02
1.2500003253e+02
1.2500000803e+02
1.2500000192e+02
1.2500000045e+02
1.2500000010e+02
1.2500000003e+02
1.2500000001e+02
1.2500000001e+02
1.2500000000e+02
1.2500000000e+02
1.2500000000e+02
1.2500000000e+02
1.2500000000e+02
1.2500000000e+02
1.2500000000e+02
1.2500000000e+02
1.2500000000e+02
1.2500000000e+02
1.2500000000e+02
1.2500000000e+02
1.2500000000e+02
1.2500000000e+02
1.2500000000e+02

SCALARS molarDensity float
LOOKUP_TABLE default
1.2977624132e+05
1.2977624132e+05
1.2977624132e+05
1.2977624132e+05
1.2977624132e+05
1.2977624132e+05
1.2977624132e+05
1.2977624132e+05
1.2977624132e+05
1.2977624132e+05
1.2977624132e+05
1.2977624132e+05
1.2977624132e+05
1.2977624132e+05
1.2977624132e+05
1.2977624132e+05
1.2977624132e+05
1.2977624130e+05
1.2977624125e+05
1.2977624104e+05
1.2977624027e+05
1.2977623758e+05
1.2977622855e+05
1.2977619943e+05
1.2977610951e+05
1.2977584403e+05
1.2977509569e+05
1.2977308530e+05
1.2976794817e+05
1.2975548859e+05
1.2972687140e+05
1.2966477973e+05
1.2953782812e+05
1.2929382461e+05
1.2885388185e+05
1.2811088424e+05
1.2693621373e+05
1.2519661159e+05
1.2277861083e+05
1.1961336508e+05
1.1569325762e+05
1.1107491795e+05
1.0586923426e+05
1.0022380626e+05
9.4304573749e+04
8.8281468171e+04
8.2319817601e+04
7.6576536643e+04
7.1198298355e+04
6.6317183149e+04
6.2037267422e+04
5.8404764356e+04
5.5362460321e+04
5.2740202742e+04
5.0280284368e+04
4.7780443584e+04
4.5202589706e+04
4.2677508314e+04
4.0407592840e+04
3.8514187949e+04
3.6862742246e+04
3.4961363727e+04
3.2190323433e+04
2.8365198430e+04
2.4115833064e+04
2.0506068012e+04
1.8171865286e+04
1.6991489596e+04
1.6497464354e+04
1.6314683233e+04
1.6251885194e+04
1.6231317733e+04
1.6224826301e+04
1.6222845084e+04
1.6222260004e+04
1.6222092872e+04
1.6222046710e+04
1.6222034387e+04
1.6222031208e+04
1.6222030415e+04
1.6222030224e+04
1.6222030179e+04
1.6222030169e+04
1.6222030167e+04
1.6222030167e+04
1.6222030167e+04
1.6222030166e+04
1.6222030166e+04
1.6222030166e+04
1.6222030166e+04
1.6222030166e+04
1.6222030166e+04
1.6222030166e+04
1.6222030166e+04
1.6222030166e+04
1.6222030166e+04
1.6222030166e+04
1.6222030166e+04
1.6222030166e+04
1.6222030166e+04
1.2977624132e+05
1.2977624132e+05
1.2977624132e+05
1.2977624132e+05
1.2977624132e+05
1.2977624132e+05
1.2977624132e+05
1.2977624132e+05
1.2977624132e+05
1.2977624132e+05
1.2977624132e+05
1.2977624132e+05
1.2977624132e+05
1.2977624132e+05
1.2977624132e+05
1.2977624132e+05
1.2977624132e+05
1.2977624130e+05
1.2977624125e+05
1.2977624104e+05
1.2977624027e+05
1.2977623758e+05
1.2977622855e+05
1.2977619943e+05
1.2977610951e+05
1.2977584403e+05
1.2977509569e+05
1.2977308530e+05
1.2976794817e+05
1.2975548859e+05
1.2972687140e+05
1.2966477973e+05
1.2953782812e+05
1.2929382461e+05
1.2885388185e+05
1.2811088424e+05
1.2693621373e+05
1.2519661159e+05
1.2277861083e+05
1.1961336508e+05
1.1569325762e+05
1.1107491795e+05
1.0586923426e+05
1.0022380626e+05
9.4304573749e+04
8.8281468171e+04
8.2319817601e+04
7.6576536643e+04
7.1198298355e+04
6.6317183149e+04
6.2037267422e+04
5.8404764356e+04
5.5362460321e+04
5.2740202742e+04
5.0280284368e+04
4.7780443584e+04
4.5202589706e+04
4.2677508314e+04
4.0407592840e+04
3.8514187949e+04
3.6862742246e+04
3.4961363727e+04
3.2190323433e+04
2.8365198430e+04
2.4115833064e+04
2.0506068012e+04
1.8171865286e+04
1.6991489596e+04
1.6497464354e+04