# vtk DataFile Version 2.0
Blank
ASCII
DATASET STRUCTURED_GRID
DIMENSIONS 101 11 2
POINTS 2222 float
0.0000000000e+00 0.0000000000e+00 0.0000000000e+00
1.0000000000e-02 0.0000000000e+00 0.0000000000e+00
2.0000000000e-02 0.0000000000e+00 0.0000000000e+00
3.0000000000e-02 0.0000000000e+00 0.0000000000e+00
4.0000000000e-02 0.0000000000e+00 0.0000000000e+00
5.0000000000e-02 0.0000000000e+00 0.0000000000e+00
6.0000000000e-02 0.0000000000e+00 0.0000000000e+00
7.0000000000e-02 0.0000000000e+00 0.0000000000e+00
8.0000000000e-02 0.0000000000e+00 0.0000000000e+00
9.0000000000e-02 0.0000000000e+00 0.0000000000e+00
1.0000000000e-01 0.0000000000e+00 0.0000000000e+00
1.1000000000e-01 0.0000000000e+00 0.0000000000e+00
1.2000000000e-01 0.0000000000e+00 0.0000000000e+00
1.3000000000e-01 0.0000000000e+00 0.0000000000e+00
1.4000000000e-01 0.0000000000e+00 0.0000000000e+00
1.5000000000e-01 0.0000000000e+00 0.0000000000e+00
1.6000000000e-01 0.0000000000e+00 0.0000000000e+00
1.7000000000e-01 0.0000000000e+00 0.0000000000e+00
1.8000000000e-01 0.0000000000e+00 0.0000000000e+00
1.9000000000e-01 0.0000000000e+00 0.0000000000e+00
2.0000000000e-01 0.0000000000e+00 0.0000000000e+00
2.1000000000e-01 0.0000000000e+00 0.0000000000e+00
2.2000000000e-01 0.0000000000e+00 0.0000000000e+00
2.3000000000e-01 0.0000000000e+00 0.0000000000e+00
2.4000000000e-01 0.0000000000e+00 0.0000000000e+00
2.5000000000e-01 0.0000000000e+00 0.0000000000e+00
2.6000000000e-01 0.0000000000e+00 0.0000000000e+00
2.7000000000e-01 0.0000000000e+00 0.0000000000e+00
2.8000000000e-01 0.0000000000e+00 0.0000000000e+00
2.9000000000e-01 0.0000000000e+00 0.0000000000e+00
3.0000000000e-01 0.0000000000e+00 0.0000000000e+00
3.1000000000e-01 0.0000000000e+00 0.0000000000e+00
3.2000000000e-01 0.0000000000e+00 0.0000000000e+00
3.3000000000e-01 0.0000000000e+00 0.0000000000e+00
3.4000000000e-01 0.0000000000e+00 0.0000000000e+00
3.5000000000e-01 0.0000000000e+00 0.0000000000e+00
3.6000000000e-01 0.0000000000e+00 0.0000000000e+00
3.7000000000e-01 0.0000000000e+00 0.0000000000e+00
3.8000000000e-01 0.0000000000e+00 0.0000000000e+00
3.9000000000e-01 0.0000000000e+00 0.0000000000e+00
4.0000000000e-01 0.0000000000e+00 0.0000000000e+00
4.1000000000e-01 0.0000000000e+00 0.0000000000e+00
4.2000000000e-01 0.0000000000e+00 0.0000000000e+00
4.3000000000e-01 0.0000000000e+00 0.0000000000e+00
4.4000000000e-01 0.0000000000e+00 0.0000000000e+00
4.5000000000e-01 0.0000000000e+00 0.0000000000e+00
4.6000000000e-01 0.0000000000e+00 0.0000000000e+00
4.7000000000e-01 0.0000000000e+00 0.0000000000e+00
4.8000000000e-01 0.0000000000e+00 0.0000000000e+00
4.9000000000e-01 0.0000000000e+00 0.0000000000e+00
5.0000000000e-01 0.0000000000e+00 0.0000000000e+00
5.1000000000e-01 0.0000000000e+00 0.0000000000e+00
5.2000000000e-01 0.0000000000e+00 0.0000000000e+00
5.3000000000e-01 0.0000000000e+00 0.0000000000e+00
5.4000000000e-01 0.0000000000e+00 0.0000000000e+00
5.5000000000e-01 0.0000000000e+00 0.0000000000e+00
5.6000000000e-01 0.0000000000e+00 0.0000000000e+00
5.7000000000e-01 0.0000000000e+00 0.0000000000e+00
5.8000000000e-01 0.0000000000e+00 0.0000000000e+00
5.9000000000e-01 0.0000000000e+00 0.0000000000e+00
6.0000000000e-01 0.0000000000e+00 0.0000000000e+00
6.1000000000e-01 0.0000000000e+00 0.0000000000e+00
6.2000000000e-01 0.0000000000e+00 0.0000000000e+00
6.3000000000e-01 0.0000000000e+00 0.0000000000e+00
6.4000000000e-01 0.0000000000e+00 0.0000000000e+00
6.5000000000e-01 0.0000000000e+00 0.0000000000e+00
6.6000000000e-01 0.0000000000e+00 0.0000000000e+00
6.7000000000e-01 0.0000000000e+00 0.0000000000e+00
6.8000000000e-01 0.0000000000e+00 0.0000000000e+00
6.9000000000e-01 0.0000000000e+00 0.0000000000e+00
7.0000000000e-01 0.0000000000e+00 0.0000000000e+00
7.1000000000e-01 0.0000000000e+00 0.0000000000e+00
7.2000000000e-01 0.0000000000e+00 0.0000000000e+00
7.3000000000e-01 0.0000000000e+00 0.0000000000e+00
7.4000000000e-01 0.0000000000e+00 0.0000000000e+00
7.5000000000e-01 0.0000000000e+00 0.0000000000e+00
7.6000000000e-01 0.0000000000e+00 0.0000000000e+00
7.7000000000e-01 0.0000000000e+00 0.0000000000e+00
7.8000000000e-01 0.0000000000e+00 0.0000000000e+00
7.9000000000e-01 0.0000000000e+00 0.0000000000e+00
8.0000000000e-01 0.0000000000e+00 0.0000000000e+00
8.1000000000e-01 0.0000000000e+00 0.0000000000e+00
8.2000000000e-01 0.0000000000e+00 0.0000000000e+00
8.3000000000e-01 0.0000000000e+00 0.0000000000e+00
8.4000000000e-01 0.0000000000e+00 0.0000000000e+00
8.5000000000e-01 0.0000000000e+00 0.0000000000e+00
8.6000000000e-01 0.0000000000e+00 0.0000000000e+00
8.7000000000e-01 0.0000000000e+00 0.0000000000e+00
8.8000000000e-01 0.0000000000e+00 0.0000000000e+00
8.9000000000e-01 0.0000000000e+00 0.0000000000e+00
9.0000000000e-01 0.0000000000e+00 0.0000000000e+00
9.1000000000e-01 0.0000000000e+00 0.0000000000e+00
9.2000000000e-01 0.0000000000e+00 0.0000000000e+00
9.3000000000e-01 0.0000000000e+00 0.0000000000e+00
9.4000000000e-01 0.0000000000e+00 0.0000000000e+00
9.5000000000e-01 0.0000000000e+00 0.0000000000e+00
9.6000000000e-01 0.0000000000e+00 0.0000000000e+00
9.7000000000e-01 0.0000000000e+00 0.0000000000e+00
9.8000000000e-01 0.0000000000e+00 0.0000000000e+00
9.9000000000e-01 0.0000000000e+00 0.0000000000e+00
1.0000000000e+00 0.0000000000e+00 0.0000000000e+00
0.0000000000e+00 1.0000000000e-03 0.0000000000e+00
1.0000000000e-02 1.0000000000e-03 0.0000000000e+00
2.0000000000e-02 1.0000000000e-03 0.0000000000e+00
3.0000000000e-02 1.0000000000e-03 0.0000000000e+00
4.0000000000e-02 1.0000000000e-03 0.0000000000e+00
5.0000000000e-02 1.0000000000e-03 0.0000000000e+00
6.0000000000e-02 1.0000000000e-03 0.0000000000e+00
7.0000000000e-02 1.0000000000e-03 0.0000000000e+00
8.0000000000e-02 1.0000000000e-03 0.0000000000e+00
9.0000000000e-02 1.0000000000e-03 0.0000000000e+00
1.0000000000e-01 1.0000000000e-03 0.0000000000e+00
1.1000000000e-01 1.0000000000e-03 0.0000000000e+00
1.2000000000e-01 1.0000000000e-03 0.0000000000e+00
1.3000000000e-01 1.0000000000e-03 0.0000000000e+00
1.4000000000e-01 1.0000000000e-03 0.0000000000e+00
1.5000000000e-01 1.0000000000e-03 0.0000000000e+00
1.6000000000e-01 1.0000000000e-03 0.0000000000e+00
1.7000000000e-01 1.0000000000e-03 0.0000000000e+00
1.8000000000e-01 1.0000000000e-03 0.0000000000e+00
1.9000000000e-01 1.0000000000e-03 0.0000000000e+00
2.0000000000e-01 1.0000000000e-03 0.0000000000e+00
2.1000000000e-01 1.0000000000e-03 0.0000000000e+00
2.2000000000e-01 1.0000000000e-03 0.0000000000e+00
2.3000000000e-01 1.0000000000e-03 0.0000000000e+00
2.4000000000e-01 1.0000000000e-03 0.0000000000e+00
2.5000000000e-01 1.0000000000e-03 0.0000000000e+00
2.6000000000e-01 1.0000000000e-03 0.0000000000e+00
2.7000000000e-01 1.0000000000e-03 0.0000000000e+00
2.8000000000e-01 1.0000000000e-03 0.0000000000e+00
2.9000000000e-01 1.0000000000e-03 0.0000000000e+00
3.0000000000e-01 1.0000000000e-03 0.0000000000e+00
3.1000000000e-01 1.0000000000e-03 0.0000000000e+00
3.2000000000e-01 1.0000000000e-03 0.0000000000e+00
3.3000000000e-01 1.0000000000e-03 0.0000000000e+00
3.4000000000e-01 1.0000000000e-03 0.0000000000e+00
3.5000000000e-01 1.0000000000e-03 0.0000000000e+00
3.6000000000e-01 1.0000000000e-03 0.0000000000e+00
3.7000000000e-01 1.0000000000e-03 0.0000000000e+00
3.8000000000e-01 1.0000000000e-03 0.0000000000e+00
3.9000000000e-01 1.0000000000e-03 0.0000000000e+00
4.0000000000e-01 1.0000000000e-03 0.0000000000e+00
4.1000000000e-01 1.0000000000e-03 0.0000000000e+00
4.2000000000e-01 1.0000000000e-03 0.0000000000e+00
4.3000000000e-01 1.0000000000e-03 0.0000000000e+00
4.4000000000e-01 1.0000000000e-03 0.0000000000e+00
4.5000000000e-01 1.0000000000e-03 0.0000000000e+00
4.6000000000e-01 1.0000000000e-03 0.0000000000e+00
4.7000000000e-01 1.0000000000e-03 0.0000000000e+00
4.8000000000e-01 1.0000000000e-03 0.0000000000e+00
4.9000000000e-01 1.0000000000e-03 0.0000000000e+00
5.0000000000e-01 1.0000000000e-03 0.0000000000e+00
5.1000000000e-01 1.0000000000e-03 0.0000000000e+00
5.2000000000e-01 1.0000000000e-03 0.0000000000e+00
5.3000000000e-01 1.0000000000e-03 0.0000000000e+00
5.4000000000e-01 1.0000000000e-03 0.0000000000e+00
5.5000000000e-01 1.0000000000e-03 0.0000000000e+00
5.6000000000e-01 1.0000000000e-03 0.0000000000e+00
5.7000000000e-01 1.0000000000e-03 0.0000000000e+00
5.8000000000e-01 1.0000000000e-03 0.0000000000e+00
5.9000000000e-01 1.0000000000e-03 0.0000000000e+00
6.0000000000e-01 1.0000000000e-03 0.0000000000e+00
6.1000000000e-01 1.0000000000e-03 0.0000000000e+00
6.2000000000e-01 1.0000000000e-03 0.0000000000e+00
6.3000000000e-01 1.0000000000e-03 0.0000000000e+00
6.4000000000e-01 1.0000000000e-03 0.0000000000e+00
6.5000000000e-01 1.0000000000e-03 0.0000000000e+00
6.6000000000e-01 1.0000000000e-03 0.0000000000e+00
6.7000000000e-01 1.0000000000e-03 0.0000000000e+00
6.8000000000e-01 1.0000000000e-03 0.0000000000e+00
6.9000000000e-01 1.0000000000e-03 0.0000000000e+00
7.0000000000e-01 1.0000000000e-03 0.0000000000e+00
7.1000000000e-01 1.0000000000e-03 0.0000000000e+00
7.2000000000e-01 1.0000000000e-03 0.0000000000e+00
7.3000000000e-01 1.0000000000e-03 0.0000000000e+00
7.4000000000e-01 1.0000000000e-03 0.0000000000e+00
7.5000000000e-01 1.0000000000e-03 0.0000000000e+00
7.6000000000e-01 1.0000000000e-03 0.0000000000e+00
7.7000000000e-01 1.0000000000e-03 0.0000000000e+00
7.8000000000e-01 1.0000000000e-03 0.0000000000e+00
7.9000000000e-01 1.0000000000e-03 0.0000000000e+00
8.0000000000e-01 1.0000000000e-03 0.0000000000e+00
8.1000000000e-01 1.0000000000e-03 0.0000000000e+00
8.2000000000e-01 1.0000000000e-03 0.0000000000e+00
8.3000000000e-01 1.0000000000e-03 0.0000000000e+00
8.4000000000e-01 1.0000000000e-03 0.0000000000e+00
8.5000000000e-01 1.0000000000e-03 0.0000000000e+00
8.6000000000e-01 1.0000000000e-03 0.0000000000e+00
8.7000000000e-01 1.0000000000e-03 0.0000000000e+00
8.8000000000e-01 1.0000000000e-03 0.0000000000e+00
8.9000000000e-01 1.0000000000e-03 0.0000000000e+00
9.0000000000e-01 1.0000000000e-03 0.0000000000e+00
9.1000000000e-01 1.0000000000e-03 0.0000000000e+00
9.2000000000e-01 1.0000000000e-03 0.0000000000e+00
[...]
CELL_DATA 1000

SCALARS massDensity float
LOOKUP_TABLE default
9.9999999996e+02
9.9999999996e+02
9.9999999995e+02
9.9999999994e+02
9.9999999991e+02
9.9999999980e+02
9.9999999947e+02
9.9999999848e+02
9.9999999561e+02
9.9999998749e+02
9.9999996511e+02
9.9999990526e+02
9.9999974980e+02
9.9999935799e+02
9.9999840051e+02
9.9999613372e+02
9.9999093933e+02
9.9997942890e+02
9.9995478879e+02
9.9990388879e+02
9.9980253998e+02
9.9960826230e+02
9.9925017085e+02
9.9861630230e+02
9.9753999268e+02
9.9578863255e+02
9.9305967269e+02
9.8898911988e+02
9.8317594011e+02
9.7522155530e+02
9.6477818724e+02
9.5159559456e+02
9.3555509996e+02
9.1668337057e+02
8.9514458650e+02
8.7121555802e+02
8.4525170968e+02
8.1765200488e+02
7.8882875183e+02
7.5918532095e+02
7.2910230978e+02
6.9893113889e+02
6.6899341537e+02
6.3958435827e+02
6.1097880300e+02
5.8343851140e+02
5.5721950063e+02
5.3257769530e+02
5.0977026974e+02
4.8904860317e+02
4.7063729187e+02
4.5469353376e+02
4.4124483561e+02
4.3011231581e+02
4.2084471120e+02
4.1271631528e+02
4.0478227585e+02
3.9608079420e+02
3.8586831522e+02
3.7382309072e+02
3.6012773154e+02
3.4539679211e+02
3.3048959829e+02
3.1629130539e+02
3.0353990711e+02
2.9274248418e+02
2.8417986752e+02
2.7793423417e+02
2.7376557074e+02
2.7059550708e+02
2.6570687374e+02
2.5480469185e+02
2.3440738563e+02
2.0574207663e+02
1.7560935983e+02
1.5169111134e+02
1.3705947696e+02
1.2986125775e+02
1.2682679417e+02
1.2565994995e+02
1.2523285962e+02
1.2508076496e+02
1.2502758675e+02
1.2500927918e+02
1.2500307143e+02
1.2500099956e+02
1.2500031955e+02
1.2500010028e+02
1.2500003087e+02
1.2500000932e+02
1.2500000276e+02
1.2500000080e+02
1.2500000023e+02
1.2500000007e+02
1.2500000002e+02
1.2500000001e+02
1.2500000001e+02
1.2500000001e+02
1.2500000000e+02
1.2500000000e+02
9.9999999996e+02
9.9999999996e+02
9.9999999995e+02
9.9999999994e+02
9.9999999991e+02
9.9999999980e+02
9.9999999947e+02
9.9999999848e+02
9.9999999561e+02
9.9999998749e+02
9.9999996511e+02
9.9999990526e+02
9.9999974980e+02
9.9999935799e+02
9.9999840051e+02
9.9999613372e+02
9.9999093933e+02
9.9997942890e+02
9.9995478879e+02
9.9990388879e+02
9.9980253998e+02
9.9960826230e+02
9.9925017085e+02
9.9861630230e+02
9.9753999268e+02
9.9578863255e+02
9.9305967269e+02
9.8898911988e+02
9.8317594011e+02
9.7522155530e+02
9.6477818724e+02
9.5159559456e+02
9.3555509996e+02
9.1668337057e+02
8.9514458650e+02
8.7121555802e+02
8.4525170968e+02
8.1765200488e+02
7.8882875183e+02
7.5918532095e+02
7.2910230978e+02
6.9893113889e+02
6.6899341537e+02
6.3958435827e+02
6.1097880300e+02
5.8343851140e+02
5.5721950063e+02
5.3257769530e+02
5.0977026974e+02
4.8904860317e+02
4.7063729187e+02
4.5469353376e+02
4.4124483561e+02
4.3011231581e+02
4.2084471120e+02
4.1271631528e+02
4.0478227585e+02
3.9608079420e+02
3.8586831522e+02
3.7382309072e+02
3.6012773154e+02
3.4539679211e+02
3.3048959829e+02
3.1629130539e+02
3.0353990711e+02
2.9274248418e+02
2.8417986752e+02
2.7793423417e+02
2.7376557074e+02
2.7059550708e+02
2.6570687374e+02
2.5480469185e+02
2.3440738563e+02
2.0574207663e+02
1.7560935983e+02
1.5169111134e+02
1.3705947696e+02
1.2986125775e+02
1.2682679417e+02
1.2565994995e+02
1.2523285962e+02
1.2508076496e+02
1.2502758675e+02
1.2500927918e+02
1.2500307143e+02
1.2500099956e+02
1.2500031955e+02
1.2500010028e+02
1.2500003087e+02
1.2500000932e+02
1.2500000276e+02
1.2500000080e+02
1.2500000023e+02
1.2500000007e+02
1.2500000002e+02
1.2500000001e+02
1.2500000001e+02
1.2500000001e+02
1.2500000000e+02
1.2500000000e+02
9.9999999996e+02
9.9999999996e+02
9.9999999995e+02
9.9999999994e+02
9.9999999991e+02
9.9999999980e+02
9.9999999947e+02
9.9999999848e+02
9.9999999561e+02
9.9999998749e+02
9.9999996511e+02
9.9999990526e+02
9.9999974980e+02
9.9999935799e+02
9.9999840051e+02
9.9999613372e+02
9.9999093933e+02
9.9997942890e+02
9.9995478879e+02
9.9990388879e+02
9.9980253998e+02
9.9960826230e+02
9.9925017085e+02
9.9861630230e+02
9.9753999268e+02
9.9578863255e+02
9.9305967269e+02
9.8898911988e+02
9.8317594011e+02
9.7522155530e+02
9.6477818724e+02
9.5159559456e+02
9.3555509996e+02
9.1668337057e+02
8.9514458650e+02
8.7121555802e+02
8.4525170968e+02
8.1765200488e+02
7.8882875183e+02
7.5918532095e+02
7.2910230978e+02
6.9893113889e+02
6.6899341537e+02
6.3958435827e+02
6.1097880300e+02
5.8343851140e+02
5.5721950063e+02
5.3257769530e+02
5.0977026974e+02
4.8904860317e+02
4.7063729187e+02
4.5469353376e+02
4.4124483561e+02
4.3011231581e+02
4.2084471120e+02
4.1271631528e+02
4.0478227585e+02
3.9608079420e+02
3.8586831522e+02
3.7382309072e+02
3.6012773154e+02
3.4539679211e+02
3.3048959829e+02
3.1629130539e+02
3.0353990711e+02
2.9274248418e+02
2.8417986752e+02
2.7793423417e+02
2.7376557074e+02
2.7059550708e+02
2.6570687374e+02
2.5480469185e+02
2.3440738563e+02
2.0574207663e+02
1.7560935983e+02
1.5169111134e+02
1.3705947696e+02
1.2986125775e+02
1.2682679417e+02
1.2565994995e+02
1.2523285962e+02
1.2508076496e+02
1.2502758675e+02
1.2500927918e+02
1.2500307143e+02
1.2500099956e+02
1.2500031955e+02
1.2500010028e+02
1.2500003087e+02
1.2500000932e+02
1.2500000276e+02
1.2500000080e+02
1.2500000023e+02
1.2500000007e+02
1.2500000002e+02
1.2500000001e+02
1.2500000001e+02
1.2500000001e+02
1.2500000000e+02
1.2500000000e+02
9.9999999996e+02
9.9999999996e+02
9.9999999995e+02
9.9999999994e+02
9.9999999991e+02
9.9999999980e+02
9.9999999947e+02
9.9999999848e+02
9.9999999561e+02
9.9999998749e+02
9.9999996511e+02
9.9999990526e+02
9.9999974980e+02
9.9999935799e+02
9.9999840051e+02
9.9999613372e+02
9.9999093933e+02
9.9997942890e+02
9.9995478879e+02
9.9990388879e+02
9.9980253998e+02
9.9960826230e+02
9.9925017085e+02
9.9861630230e+02
9.9753999268e+02
9.9578863255e+02
9.9305967269e+02
9.8898911988e+02
9.8317594011e+02
9.7522155530e+02
9.6477818724e+02
9.5159559456e+02
9.3555509996e+02
9.1668337057e+02
8.9514458650e+02
8.7121555802e+02
8.4525170968e+02
8.1765200488e+02
7.8882875183e+02
7.5918532095e+02
7.2910230978e+02
6.9893113889e+02
6.6899341537e+02
6.3958435827e+02
6.1097880300e+02
5.8343851140e+02
5.5721950063e+02
5.3257769530e+02
5.0977026974e+02
4.8904860317e+02
4.7063729187e+02
4.5469353376e+02
4.4124483561e+02
4.3011231581e+02
4.2084471120e+02
4.1271631528e+02
4.0478227585e+02
3.9608079420e+02
3.8586831522e+02
3.7382309072e+02
3.6012773154e+02
3.4539679211e+02
3.3048959829e+02
3.1629130539e+02
3.0353990711e+02
2.9274248418e+02
2.8417986752e+02
2.7793423417e+02
2.7376557074e+02
2.7059550708e+02
2.6570687374e+02
2.5480469185e+02
2.3440738563e+02
2.0574207663e+02
1.7560935983e+02
1.5169111134e+02
1.3705947696e+02
1.2986125775e+02
1.2682679417e+02
1.2565994995e+02
1.2523285962e+02
1.2508076496e+02
1.2502758675e+02
1.2500927918e+02
1.2500307143e+02
1.2500099956e+02
1.2500031955e+02
1.2500010028e+02
1.2500003087e+02
1.2500000932e+02
1.2500000276e+02
1.2500000080e+02
1.2500000023e+02
1.2500000007e+02
1.2500000002e+02
1.2500000001e+02
1.2500000001e+02
1.2500000001e+02
1.2500000000e+02
1.2500000000e+02
9.9999999996e+02
9.9999999996e+02
9.9999999995e+02
9.9999999994e+02
9.9999999991e+02
9.9999999980e+02
9.9999999947e+02
9.9999999848e+02
9.9999999561e+02
9.9999998749e+02
9.9999996511e+02
9.9999990526e+02
9.9999974980e+02
9.9999935799e+02
9.9999840051e+02
9.9999613372e+02
9.9999093933e+02
9.9997942890e+02
9.9995478879e+02
9.9990388879e+02
9.9980253998e+02
9.9960826230e+02
9.9925017085e+02
9.9861630230e+02
9.9753999268e+02
9.9578863255e+02
9.9305967269e+02
9.8898911988e+02
9.8317594011e+02
9.7522155530e+02
9.6477818724e+02
9.5159559456e+02
9.3555509996e+02
9.1668337057e+02
8.9514458650e+02
8.7121555802e+02
8.4525170968e+02
8.1765200488e+02
7.8882875183e+02
7.5918532095e+02
7.2910230978e+02
6.9893113889e+02
6.6899341537e+02
6.3958435827e+02
6.1097880300e+02
5.8343851140e+02
5.5721950063e+02
5.3257769530e+02
5.0977026974e+02
4.8904860317e+02
4.7063729187e+02
4.5469353376e+02
4.4124483561e+02
4.3011231581e+02
4.2084471120e+02
4.1271631528e+02
4.0478227585e+02
3.9608079420e+02
3.8586831522e+02
3.7382309072e+02
3.6012773154e+02
3.4539679211e+02
3.3048959829e+02
3.1629130539e+02
3.0353990711e+02
2.9274248418e+02
2.8417986752e+02
2.7793423417e+02
2.7376557074e+02
2.7059550708e+02
2.6570687374e+02
2.5480469185e+02
2.3440738563e+02
2.0574207663e+02
1.7560935983e+02
1.5169111134e+02
1.3705947696e+02
1.2986125775e+02
1.2682679417e+02
1.2565994995e+02
1.2523285962e+02
1.2508076496e+02
1.2502758675e+02
1.2500927918e+02
1.2500307143e+02
1.2500099956e+02
1.2500031955e+02
1.2500010028e+02
1.2500003087e+02
1.2500000932e+02
1.2500000276e+02
1.2500000080e+02
1.2500000023e+02
1.2500000007e+02
1.2500000002e+02
1.2500000001e+02
1.2500000001e+02
1.2500000001e+02
1.2500000000e+02
1.2500000000e+02
9.9999999996e+02
9.9999999996e+02
9.9999999995e+02
9.9999999994e+02
9.9999999991e+02
9.9999999980e+02
9.9999999947e+02
9.9999999848e+02
9.9999999561e+02
9.9999998749e+02
9.9999996511e+02
9.9999990526e+02
9.9999974980e+02
9.9999935799e+02
9.9999840051e+02
9.9999613372e+02
9.9999093933e+02
9.9997942890e+02
9.9995478879e+02
9.9990388879e+02
9.9980253998e+02
9.9960826230e+02
9.9925017085e+02
9.9861630230e+02
9.9753999268e+02
9.9578863255e+02
9.9305967269e+02
9.8898911988e+02
9.8317594011e+02
9.7522155530e+02
9.6477818724e+02
9.5159559456e+02
9.3555509996e+02
9.1668337057e+02
8.9514458650e+02
8.7121555802e+02
8.4525170968e+02
8.1765200488e+02
7.8882875183e+02
7.5918532095e+02
7.2910230978e+02
6.9893113889e+02
6.6899341537e+02
6.3958435827e+02
6.1097880300e+02
5.8343851140e+02
5.5721950063e+02
5.3257769530e+02
5.0977026974e+02
4.8904860317e+02
4.7063729187e+02
4.5469353376e+02
4.4124483561e+02
4.3011231581e+02
4.2084471120e+02
4.1271631528e+02
4.0478227585e+02
3.9608079420e+02
3.8586831522e+02
3.7382309072e+02
3.6012773154e+02
3.4539679211e+02
3.3048959829e+02
3.1629130539e+02
3.0353990711e+02
2.9274248418e+02
2.8417986752e+02
2.7793423417e+02
2.7376557074e+02
2.7059550708e+02
2.6570687374e+02
2.5480469185e+02
2.3440738563e+02
2.0574207663e+02
1.7560935983e+02
1.5169111134e+02
1.3705947696e+02
1.2986125775e+02
1.2682679417e+02
1.2565994995e+02
1.2523285962e+02
1.2508076496e+02
1.2502758675e+02
1.2500927918e+02
1.2500307143e+02
1.2500099956e+02
1.2500031955e+02
1.2500010028e+02
1.2500003087e+02
1.2500000932e+02
1.2500000276e+02
1.2500000080e+02
1.2500000023e+02
1.2500000007e+02
1.2500000002e+02
1.2500000001e+02
1.2500000001e+02
1.2500000001e+02
1.2500000000e+02
1.2500000000e+02
9.9999999996e+02
9.9999999996e+02
9.9999999995e+02
9.9999999994e+02
9.9999999991e+02
9.9999999980e+02
9.9999999947e+02
9.9999999848e+02
9.9999999561e+02
9.9999998749e+02
9.9999996511e+02
9.9999990526e+02
9.9999974980e+02
9.9999935799e+02
9.9999840051e+02
9.9999613372e+02
9.9999093933e+02
9.9997942890e+02
9.9995478879e+02
9.9990388879e+02
9.9980253998e+02
9.9960826230e+02
9.9925017085e+02
9.9861630230e+02
9.9753999268e+02
9.9578863255e+02
9.9305967269e+02
9.8898911988e+02
9.8317594011e+02
9.7522155530e+02
9.6477818724e+02
9.5159559456e+02
9.3555509996e+02
9.1668337057e+02
8.9514458650e+02
8.7121555802e+02
8.4525170968e+02
8.1765200488e+02
7.8882875183e+02
7.5918532095e+02
7.2910230978e+02
6.9893113889e+02
6.6899341537e+02
6.3958435827e+02
6.1097880300e+02
5.8343851140e+02
5.5721950063e+02
5.3257769530e+02
5.0977026974e+02
4.8904860317e+02
4.7063729187e+02
4.5469353376e+02
4.4124483561e+02
4.3011231581e+02
4.2084471120e+02
4.1271631528e+02
4.0478227585e+02
3.9608079420e+02
3.8586831522e+02
3.7382309072e+02
3.6012773154e+02
3.4539679211e+02
3.3048959829e+02
3.1629130539e+02
3.0353990711e+02
2.9274248418e+02
2.8417986752e+02
2.7793423417e+02
2.7376557074e+02
2.7059550708e+02
2.6570687374e+02
2.5480469185e+02
2.3440738563e+02
2.0574207663e+02
1.7560935983e+02
1.5169111134e+02
1.3705947696e+02
1.2986125775e+02
1.2682679417e+02
1.2565994995e+02
1.2523285962e+02
1.2508076496e+02
1.2502758675e+02
1.2500927918e+02
1.2500307143e+02
1.2500099956e+02
1.2500031955e+02
1.2500010028e+02
1.2500003087e+02
1.2500000932e+02
1.2500000276e+02
1.2500000080e+02
1.2500000023e+02
1.2500000007e+02
1.2500000002e+02
1.2500000001e+02
1.2500000001e+02
1.2500000001e+02
1.2500000000e+02
1.2500000000e+02
9.9999999996e+02
9.9999999996e+02
9.9999999995e+02
9.9999999994e+02
9.9999999991e+02
9.9999999980e+02
9.9999999947e+02
9.9999999848e+02
9.9999999561e+02
9.9999998749e+02
9.9999996511e+02
9.9999990526e+02
9.9999974980e+02
9.9999935799e+02
9.9999840051e+02
9.9999613372e+02
9.9999093933e+02
9.9997942890e+02
9.9995478879e+02
9.9990388879e+02
9.9980253998e+02
9.9960826230e+02
9.9925017085e+02
9.9861630230e+02
9.9753999268e+02
9.9578863255e+02
9.9305967269e+02
9.8898911988e+02
9.8317594011e+02
9.7522155530e+02
9.6477818724e+02
9.5159559456e+02
9.3555509996e+02
9.1668337057e+02
8.9514458650e+02
8.7121555802e+02
8.4525170968e+02
8.1765200488e+02
7.8882875183e+02
7.5918532095e+02
7.2910230978e+02
6.9893113889e+02
6.6899341537e+02
6.3958435827e+02
6.1097880300e+02
5.8343851140e+02
5.5721950063e+02
5.3257769530e+02
5.0977026974e+02
4.8904860317e+02
4.7063729187e+02
4.5469353376e+02
4.4124483561e+02
4.3011231581e+02
4.2084471120e+02
4.1271631528e+02
4.0478227585e+02
3.9608079420e+02
3.8586831522e+02
3.7382309072e+02
3.6012773154e+02
3.4539679211e+02
3.3048959829e+02
3.1629130539e+02
3.0353990711e+02
2.9274248418e+02
2.8417986752e+02
2.7793423417e+02
2.7376557074e+02
2.7059550708e+02
2.6570687374e+02
2.5480469185e+02
2.3440738563e+02
2.0574207663e+02
1.7560935983e+02
1.5169111134e+02
1.3705947696e+02
1.2986125775e+02
1.2682679417e+02
1.2565994995e+02
1.2523285962e+02
1.2508076496e+02
1.2502758675e+02
1.2500927918e+02
1.2500307143e+02
1.2500099956e+02
1.2500031955e+02
1.2500010028e+02
1.2500003087e+02
1.2500000932e+02
1.2500000276e+02
1.2500000080e+02
1.2500000023e+02
1.2500000007e+02
1.2500000002e+02
1.2500000001e+02
1.2500000001e+02
1.2500000001e+02
1.2500000000e+02
1.2500000000e+02
9.9999999996e+02
9.9999999996e+02
9.9999999995e+02
9.9999999994e+02
9.9999999991e+02
9.9999999980e+02
9.9999999947e+02
9.9999999848e+02
9.9999999561e+02
9.9999998749e+02
9.9999996511e+02
9.9999990526e+02
9.9999974980e+02
9.9999935799e+02
9.9999840051e+02
9.9999613372e+02
9.9999093933e+02
9.9997942890e+02
9.9995478879e+02
9.9990388879e+02
9.9980253998e+02
9.9960826230e+02
9.9925017085e+02
9.9861630230e+02
9.9753999268e+02
9.9578863255e+02
9.9305967269e+02
9.8898911988e+02
9.8317594011e+02
9.7522155530e+02
9.6477818724e+02
9.5159559456e+02
9.3555509996e+02
9.1668337057e+02
8.9514458650e+02
8.7121555802e+02
8.4525170968e+02
8.1765200488e+02
7.8882875183e+02
7.5918532095e+02
7.2910230978e+02
6.9893113889e+02
6.6899341537e+02
6.3958435827e+02
6.1097880300e+02
5.8343851140e+02
5.5721950063e+02
5.3257769530e+02
5.0977026974e+02
4.8904860317e+02
4.7063729187e+02
4.5469353376e+02
4.4124483561e+02
4.3011231581e+02
4.2084471120e+02
4.1271631528e+02
4.0478227585e+02
3.9608079420e+02
3.8586831522e+02
3.7382309072e+02
3.6012773154e+02
3.4539679211e+02
3.3048959829e+02
3.1629130539e+02
3.0353990711e+02
2.9274248418e+02
2.8417986752e+02
2.7793423417e+02
2.7376557074e+02
2.7059550708e+02
2.6570687374e+02
2.5480469185e+02
2.3440738563e+02
2.0574207663e+02
1.7560935983e+02
1.5169111134e+02
1.3705947696e+02
1.2986125775e+02
1.2682679417e+02
1.2565994995e+02
1.2523285962e+02
1.2508076496e+02
1.2502758675e+02
1.2500927918e+02
1.2500307143e+02
1.2500099956e+02
1.2500031955e+02
1.2500010028e+02
1.2500003087e+02
1.2500000932e+02
1.2500000276e+02
1.2500000080e+02
1.2500000023e+02
1.2500000007e+02
1.2500000002e+02
1.2500000001e+02
1.2500000001e+02
1.2500000001e+02
1.2500000000e+02
1.2500000000e+02
9.9999999996e+02
9.9999999996e+02
9.9999999995e+02
9.9999999994e+02
9.9999999991e+02
9.9999999980e+02
9.9999999947e+02
9.9999999848e+02
9.9999999561e+02
9.9999998749e+02
9.9999996511e+02
9.9999990526e+02
9.9999974980e+02
9.9999935799e+02
9.9999840051e+02
9.9999613372e+02
9.9999093933e+02
9.9997942890e+02
9.9995478879e+02
9.9990388879e+02
9.9980253998e+02
9.9960826230e+02
9.9925017085e+02
9.9861630230e+02
9.9753999268e+02
9.9578863255e+02
9.9305967269e+02
9.8898911988e+02
9.8317594011e+02
9.7522155530e+02
9.6477818724e+02
9.5159559456e+02
9.3555509996e+02
9.1668337057e+02
8.9514458650e+02
8.7121555802e+02
8.4525170968e+02
8.1765200488e+02
7.8882875183e+02
7.5918532095e+02
7.2910230978e+02
6.9893113889e+02
6.6899341537e+02
6.3958435827e+02
6.1097880300e+02
5.8343851140e+02
5.5721950063e+02
5.3257769530e+02
5.0977026974e+02
4.8904860317e+02
4.7063729187e+02
4.5469353376e+02
4.4124483561e+02
4.3011231581e+02
4.2084471120e+02
4.1271631528e+02
4.0478227585e+02
3.9608079420e+02
3.8586831522e+02
3.7382309072e+02
3.6012773154e+02
3.4539679211e+02
3.3048959829e+02
3.1629130539e+02
3.0353990711e+02
2.9274248418e+02
2.8417986752e+02
2.7793423417e+02
2.7376557074e+02
2.7059550708e+02
2.6570687374e+02
2.5480469185e+02
2.3440738563e+02
2.0574207663e+02
1.7560935983e+02
1.5169111134e+02
1.3705947696e+02
1.2986125775e+02
1.2682679417e+02
1.2565994995e+02
1.2523285962e+02
1.2508076496e+02
1.2502758675e+02
1.2500927918e+02
1.2500307143e+02
1.2500099956e+02
1.2500031955e+02
1.2500010028e+02
1.2500003087e+02
1.2500000932e+02
1.2500000276e+02
1.2500000080e+02
1.2500000023e+02
1.2500000007e+02
1.2500000002e+02
1.2500000001e+02
1.2500000001e+02
1.2500000001e+02
1.2500000000e+02
1.2500000000e+02

SCALARS molarDensity float
LOOKUP_TABLE default
1.2977624132e+05
1.2977624132e+05
1.2977624132e+05
1.2977624132e+05
1.2977624132e+05
1.2977624130e+05
1.2977624126e+05
1.2977624113e+05
1.2977624076e+05
1.2977623970e+05
1.2977623680e+05
1.2977622903e+05
1.2977620886e+05
1.2977615801e+05
1.2977603375e+05
1.2977573958e+05
1.2977506547e+05
1.2977357169e+05
1.2977037399e+05
1.2976376838e+05
1.2975061571e+05
1.2972540308e+05
1.2967893132e+05
1.2959667024e+05
1.2945699082e+05
1.2922970589e+05
1.2887555174e+05
1.2834729069e+05
1.2759287807e+05
1.2656058791e+05
1.2520528685e+05
1.2349449953e+05
1.2141282443e+05
1.1896372232e+05
1.1616849988e+05
1.1306308051e+05
1.0969358986e+05
1.0611180391e+05
1.0237123046e+05
9.8524217423e+04
9.4620157306e+04
9.0704656152e+04
8.6819450920e+04
8.3002854028e+04
7.9290532584e+04
7.5716457054e+04
7.2313852386e+04
6.9115931510e+04
6.6156069547e+04
6.3466889546e+04
6.1077538767e+04
5.9008417767e+04
5.7263096270e+04
5.5818359694e+04
5.4615644802e+04
5.3560772131e+04
5.2531122316e+04
5.1401876733e+04
5.0076539596e+04
4.8513355634e+04
4.6736023397e+04
4.4824297446e+04
4.2889697864e+04
4.1047096778e+04
3.9392268238e+04
3.7991019274e+04
3.6879795068e+04
3.6069260247e+04
3.5528266775e+04
3.5116867829e+04
3.4482439369e+04
3.3067595180e+04
3.0420509447e+04
2.6700433388e+04
2.2789922661e+04
1.9685902273e+04
1.7787063758e+04
1.6852905925e+04
1.6459104647e+04
1.6307675990e+04
1.6252249813e+04
1.6232511538e+04
1.6225610271e+04
1.6223234384e+04
1.6222428764e+04
1.6222159885e+04
1.6222071636e+04
1.6222043180e+04
1.6222034172e+04
1.6222031376e+04
1.6222030524e+04
1.6222030270e+04
1.6222030196e+04
1.6222030175e+04
1.6222030169e+04
1.6222030167e+04
1.6222030167e+04
1.6222030167e+04
1.6222030166e+04
1.6222030166e+04
1.2977624132e+05
1.2977624132e+05
1.2977624132e+05
1.2977624132e+05
1.2977624132e+05
1.2977624130e+05
1.2977624126e+05
1.2977624113e+05
1.2977624076e+05
1.2977623970e+05
1.2977623680e+05
1.2977622903e+05
1.2977620886e+05
1.2977615801e+05
1.2977603375e+05
1.2977573958e+05
1.2977506547e+05
1.2977357169e+05
1.2977037399e+05
1.2976376838e+05
1.2975061571e+05
1.2972540308e+05
1.2967893132e+05
1.2959667024e+05
1.2945699082e+05
1.2922970589e+05
1.2887555174e+05
1.2834729069e+05
1.2759287807e+05
1.2656058791e+05
1.2520528685e+05
1.2349449953e+05
1.2141282443e+05
1.1896372232e+05
1.1616849988e+05
1.1306308051e+05
1.0969358986e+05
1.0611180391e+05
1.0237123046e+05
9.8524217423e+04
9.4620157306e+04
9.0704656152e+04
8.6819450920e+04
8.3002854028e+04
7.9290532584e+04
7.5716457054e+04
7.2313852386e+04
6.9115931510e+04
6.6156069547e+04
6.3466889546e+04
6.1077538767e+04
5.9008417767e+04
5.7263096270e+04
5.5818359694e+04
5.4615644802e+04
5.3560772131e+04
5.2531122316e+04
5.1401876733e+04
5.0076539596e+04
4.8513355634e+04
4.6736023397e+04
4.4824297446e+04
4.2889697864e+04
4.1047096778e+04
3.9392268238e+04
3.7991019274e+04
3.6879795068e+04
3.6069260247e+04
3.5528266775e+04