# vtk DataFile Version 2.0
Blank
ASCII
DATASET STRUCTURED_GRID
DIMENSIONS 101 11 2
POINTS 2222 float
0.0000000000e+00 0.0000000000e+00 0.0000000000e+00
1.0000000000e-02 0.0000000000e+00 0.0000000000e+00
2.0000000000e-02 0.0000000000e+00 0.0000000000e+00
3.0000000000e-02 0.0000000000e+00 0.0000000000e+00
4.0000000000e-02 0.0000000000e+00 0.0000000000e+00
5.0000000000e-02 0.0000000000e+00 0.0000000000e+00
6.0000000000e-02 0.0000000000e+00 0.0000000000e+00
7.0000000000e-02 0.0000000000e+00 0.0000000000e+00
8.0000000000e-02 0.0000000000e+00 0.0000000000e+00
9.0000000000e-02 0.0000000000e+00 0.0000000000e+00
1.0000000000e-01 0.0000000000e+00 0.0000000000e+00
1.1000000000e-01 0.0000000000e+00 0.0000000000e+00
1.2000000000e-01 0.0000000000e+00 0.0000000000e+00
1.3000000000e-01 0.0000000000e+00 0.0000000000e+00
1.4000000000e-01 0.0000000000e+00 0.0000000000e+00
1.5000000000e-01 0.0000000000e+00 0.0000000000e+00
1.6000000000e-01 0.0000000000e+00 0.0000000000e+00
1.7000000000e-01 0.0000000000e+00 0.0000000000e+00
1.8000000000e-01 0.0000000000e+00 0.0000000000e+00
1.9000000000e-01 0.0000000000e+00 0.0000000000e+00
2.0000000000e-01 0.0000000000e+00 0.0000000000e+00
2.1000000000e-01 0.0000000000e+00 0.0000000000e+00
2.2000000000e-01 0.0000000000e+00 0.0000000000e+00
2.3000000000e-01 0.0000000000e+00 0.0000000000e+00
2.4000000000e-01 0.0000000000e+00 0.0000000000e+00
2.5000000000e-01 0.0000000000e+00 0.0000000000e+00
2.6000000000e-01 0.0000000000e+00 0.0000000000e+00
2.7000000000e-01 0.0000000000e+00 0.0000000000e+00
2.8000000000e-01 0.0000000000e+00 0.0000000000e+00
2.9000000000e-01 0.0000000000e+00 0.0000000000e+00
3.0000000000e-01 0.0000000000e+00 0.0000000000e+00
3.1000000000e-01 0.0000000000e+00 0.0000000000e+00
3.2000000000e-01 0.0000000000e+00 0.0000000000e+00
3.3000000000e-01 0.0000000000e+00 0.0000000000e+00
3.4000000000e-01 0.0000000000e+00 0.0000000000e+00
3.5000000000e-01 0.0000000000e+00 0.0000000000e+00
3.6000000000e-01 0.0000000000e+00 0.0000000000e+00
3.7000000000e-01 0.0000000000e+00 0.0000000000e+00
3.8000000000e-01 0.0000000000e+00 0.0000000000e+00
3.9000000000e-01 0.0000000000e+00 0.0000000000e+00
4.0000000000e-01 0.0000000000e+00 0.0000000000e+00
4.1000000000e-01 0.0000000000e+00 0.0000000000e+00
4.2000000000e-01 0.0000000000e+00 0.0000000000e+00
4.3000000000e-01 0.0000000000e+00 0.0000000000e+00
4.4000000000e-01 0.0000000000e+00 0.0000000000e+00
4.5000000000e-01 0.0000000000e+00 0.0000000000e+00
4.6000000000e-01 0.0000000000e+00 0.0000000000e+00
4.7000000000e-01 0.0000000000e+00 0.0000000000e+00
4.8000000000e-01 0.0000000000e+00 0.0000000000e+00
4.9000000000e-01 0.0000000000e+00 0.0000000000e+00
5.0000000000e-01 0.0000000000e+00 0.0000000000e+00
5.1000000000e-01 0.0000000000e+00 0.0000000000e+00
5.2000000000e-01 0.0000000000e+00 0.0000000000e+00
5.3000000000e-01 0.0000000000e+00 0.0000000000e+00
5.4000000000e-01 0.0000000000e+00 0.0000000000e+00
5.5000000000e-01 0.0000000000e+00 0.0000000000e+00
5.6000000000e-01 0.0000000000e+00 0.0000000000e+00
5.7000000000e-01 0.0000000000e+00 0.0000000000e+00
5.8000000000e-01 0.0000000000e+00 0.0000000000e+00
5.9000000000e-01 0.0000000000e+00 0.0000000000e+00
6.0000000000e-01 0.0000000000e+00 0.0000000000e+00
6.1000000000e-01 0.0000000000e+00 0.0000000000e+00
6.2000000000e-01 0.0000000000e+00 0.0000000000e+00
6.3000000000e-01 0.0000000000e+00 0.0000000000e+00
6.4000000000e-01 0.0000000000e+00 0.0000000000e+00
6.5000000000e-01 0.0000000000e+00 0.0000000000e+00
6.6000000000e-01 0.0000000000e+00 0.0000000000e+00
6.7000000000e-01 0.0000000000e+00 0.0000000000e+00
6.8000000000e-01 0.0000000000e+00 0.0000000000e+00
6.9000000000e-01 0.0000000000e+00 0.0000000000e+00
7.0000000000e-01 0.0000000000e+00 0.0000000000e+00
7.1000000000e-01 0.0000000000e+00 0.0000000000e+00
7.2000000000e-01 0.0000000000e+00 0.0000000000e+00
7.3000000000e-01 0.0000000000e+00 0.0000000000e+00
7.4000000000e-01 0.0000000000e+00 0.0000000000e+00
7.5000000000e-01 0.0000000000e+00 0.0000000000e+00
7.6000000000e-01 0.0000000000e+00 0.0000000000e+00
7.7000000000e-01 0.0000000000e+00 0.0000000000e+00
7.8000000000e-01 0.0000000000e+00 0.0000000000e+00
7.9000000000e-01 0.0000000000e+00 0.0000000000e+00
8.0000000000e-01 0.0000000000e+00 0.0000000000e+00
8.1000000000e-01 0.0000000000e+00 0.0000000000e+00
8.2000000000e-01 0.0000000000e+00 0.0000000000e+00
8.3000000000e-01 0.0000000000e+00 0.0000000000e+00
8.4000000000e-01 0.0000000000e+00 0.0000000000e+00
8.5000000000e-01 0.0000000000e+00 0.0000000000e+00
8.6000000000e-01 0.0000000000e+00 0.0000000000e+00
8.7000000000e-01 0.0000000000e+00 0.0000000000e+00
8.8000000000e-01 0.0000000000e+00 0.0000000000e+00
8.9000000000e-01 0.0000000000e+00 0.0000000000e+00
9.0000000000e-01 0.0000000000e+00 0.0000000000e+00
9.1000000000e-01 0.0000000000e+00 0.0000000000e+00
9.2000000000e-01 0.0000000000e+00 0.0000000000e+00
9.3000000000e-01 0.0000000000e+00 0.0000000000e+00
9.4000000000e-01 0.0000000000e+00 0.0000000000e+00
9.5000000000e-01 0.0000000000e+00 0.0000000000e+00
9.6000000000e-01 0.0000000000e+00 0.0000000000e+00
9.7000000000e-01 0.0000000000e+00 0.0000000000e+00
9.8000000000e-01 0.0000000000e+00 0.0000000000e+00
9.9000000000e-01 0.0000000000e+00 0.0000000000e+00
1.0000000000e+00 0.0000000000e+00 0.0000000000e+00
0.0000000000e+00 1.0000000000e-03 0.0000000000e+00
1.0000000000e-02 1.0000000000e-03 0.0000000000e+00
2.0000000000e-02 1.0000000000e-03 0.0000000000e+00
3.0000000000e-02 1.0000000000e-03 0.0000000000e+00
4.0000000000e-02 1.0000000000e-03 0.0000000000e+00
5.0000000000e-02 1.0000000000e-03 0.0000000000e+00
6.0000000000e-02 1.0000000000e-03 0.0000000000e+00
7.0000000000e-02 1.0000000000e-03 0.0000000000e+00
8.0000000000e-02 1.0000000000e-03 0.0000000000e+00
9.0000000000e-02 1.0000000000e-03 0.0000000000e+00
1.0000000000e-01 1.0000000000e-03 0.0000000000e+00
1.1000000000e-01 1.0000000000e-03 0.0000000000e+00
1.2000000000e-01 1.0000000000e-03 0.0000000000e+00
1.3000000000e-01 1.0000000000e-03 0.0000000000e+00
1.4000000000e-01 1.0000000000e-03 0.0000000000e+00
1.5000000000e-01 1.0000000000e-03 0.0000000000e+00
1.6000000000e-01 1.0000000000e-03 0.0000000000e+00
1.7000000000e-01 1.0000000000e-03 0.0000000000e+00
1.8000000000e-01 1.0000000000e-03 0.0000000000e+00
1.9000000000e-01 1.0000000000e-03 0.0000000000e+00
2.0000000000e-01 1.0000000000e-03 0.0000000000e+00
2.1000000000e-01 1.0000000000e-03 0.0000000000e+00
2.2000000000e-01 1.0000000000e-03 0.0000000000e+00
2.3000000000e-01 1.0000000000e-03 0.0000000000e+00
2.4000000000e-01 1.0000000000e-03 0.0000000000e+00
2.5000000000e-01 1.0000000000e-03 0.0000000000e+00
2.6000000000e-01 1.0000000000e-03 0.0000000000e+00
2.7000000000e-01 1.0000000000e-03 0.0000000000e+00
2.8000000000e-01 1.0000000000e-03 0.0000000000e+00
2.9000000000e-01 1.0000000000e-03 0.0000000000e+00
3.0000000000e-01 1.0000000000e-03 0.0000000000e+00
3.1000000000e-01 1.0000000000e-03 0.0000000000e+00
3.2000000000e-01 1.0000000000e-03 0.0000000000e+00
3.3000000000e-01 1.0000000000e-03 0.0000000000e+00
3.4000000000e-01 1.0000000000e-03 0.0000000000e+00
3.5000000000e-01 1.0000000000e-03 0.0000000000e+00
3.6000000000e-01 1.0000000000e-03 0.0000000000e+00
3.7000000000e-01 1.0000000000e-03 0.0000000000e+00
3.8000000000e-01 1.0000000000e-03 0.0000000000e+00
3.9000000000e-01 1.0000000000e-03 0.0000000000e+00
4.0000000000e-01 1.0000000000e-03 0.0000000000e+00
4.1000000000e-01 1.0000000000e-03 0.0000000000e+00
4.2000000000e-01 1.0000000000e-03 0.0000000000e+00
4.3000000000e-01 1.0000000000e-03 0.0000000000e+00
4.4000000000e-01 1.0000000000e-03 0.0000000000e+00
4.5000000000e-01 1.0000000000e-03 0.0000000000e+00
4.6000000000e-01 1.0000000000e-03 0.0000000000e+00
4.7000000000e-01 1.0000000000e-03 0.0000000000e+00
4.8000000000e-01 1.0000000000e-03 0.0000000000e+00
4.9000000000e-01 1.0000000000e-03 0.0000000000e+00
5.0000000000e-01 1.0000000000e-03 0.0000000000e+00
5.1000000000e-01 1.0000000000e-03 0.0000000000e+00
5.2000000000e-01 1.0000000000e-03 0.0000000000e+00
5.3000000000e-01 1.0000000000e-03 0.0000000000e+00
5.4000000000e-01 1.0000000000e-03 0.0000000000e+00
5.5000000000e-01 1.0000000000e-03 0.0000000000e+00
5.6000000000e-01 1.0000000000e-03 0.0000000000e+00
5.7000000000e-01 1.0000000000e-03 0.0000000000e+00
5.8000000000e-01 1.0000000000e-03 0.0000000000e+00
5.9000000000e-01 1.0000000000e-03 0.0000000000e+00
6.0000000000e-01 1.0000000000e-03 0.0000000000e+00
6.1000000000e-01 1.0000000000e-03 0.0000000000e+00
6.2000000000e-01 1.0000000000e-03 0.0000000000e+00
6.3000000000e-01 1.0000000000e-03 0.0000000000e+00
6.4000000000e-01 1.0000000000e-03 0.0000000000e+00
6.5000000000e-01 1.0000000000e-03 0.0000000000e+00
6.6000000000e-01 1.0000000000e-03 0.0000000000e+00
6.7000000000e-01 1.0000000000e-03 0.0000000000e+00
6.8000000000e-01 1.0000000000e-03 0.0000000000e+00
6.9000000000e-01 1.0000000000e-03 0.0000000000e+00
7.0000000000e-01 1.0000000000e-03 0.0000000000e+00
7.1000000000e-01 1.0000000000e-03 0.0000000000e+00
7.2000000000e-01 1.0000000000e-03 0.0000000000e+00
7.3000000000e-01 1.0000000000e-03 0.0000000000e+00
7.4000000000e-01 1.0000000000e-03 0.0000000000e+00
7.5000000000e-01 1.0000000000e-03 0.0000000000e+00
7.6000000000e-01 1.0000000000e-03 0.0000000000e+00
7.7000000000e-01 1.0000000000e-03 0.0000000000e+00
7.8000000000e-01 1.0000000000e-03 0.0000000000e+00
7.9000000000e-01 1.0000000000e-03 0.0000000000e+00
8.0000000000e-01 1.0000000000e-03 0.0000000000e+00
8.1000000000e-01 1.0000000000e-03 0.0000000000e+00
8.2000000000e-01 1.0000000000e-03 0.0000000000e+00
8.3000000000e-01 1.0000000000e-03 0.0000000000e+00
8.4000000000e-01 1.0000000000e-03 0.0000000000e+00
8.5000000000e-01 1.0000000000e-03 0.0000000000e+00
8.6000000000e-01 1.0000000000e-03 0.0000000000e+00
8.7000000000e-01 1.0000000000e-03 0.0000000000e+00
8.8000000000e-01 1.0000000000e-03 0.0000000000e+00
8.9000000000e-01 1.0000000000e-03 0.0000000000e+00
9.0000000000e-01 1.0000000000e-03 0.0000000000e+00
9.1000000000e-01 1.0000000000e-03 0.0000000000e+00
9.2000000000e-01 1.0000000000e-03 0.0000000000e+00
[...]
CELL_DATA 1000

SCALARS massDensity float
LOOKUP_TABLE default
9.9999999502e+02
9.9999999067e+02
9.9999997703e+02
9.9999994314e+02
9.9999986186e+02
9.9999967198e+02
9.9999923962e+02
9.9999828019e+02
9.9999620669e+02
9.9999184496e+02
9.9998292048e+02
9.9996517170e+02
9.9993088792e+02
9.9986661923e+02
9.9974979275e+02
9.9954404046e+02
9.9919325764e+02
9.9861481156e+02
9.9769289925e+02
9.9627369550e+02
9.9416439535e+02
9.9113820906e+02
9.8694654350e+02
9.8133799555e+02
9.7408179106e+02
9.6499165816e+02
9.5394556433e+02
9.4089760191e+02
9.2588028018e+02
9.0899779894e+02
8.9041270403e+02
8.7032916518e+02
8.4897596007e+02
8.2659143664e+02
8.0341169988e+02
7.7966236883e+02
7.5555363697e+02
7.3127805688e+02
7.0701038830e+02
6.8290890688e+02
6.5911769096e+02
6.3576953308e+02
6.1298922918e+02
5.9089706312e+02
5.6961231151e+02
5.4925652722e+02
5.2995619631e+02
5.1184408116e+02
4.9505816637e+02
4.7973668925e+02
4.6600749004e+02
4.5397028119e+02
4.4367191375e+02
4.3507742728e+02
4.2804263841e+02
4.2229541409e+02
4.1743885483e+02
4.1296325533e+02
4.0829112344e+02
4.0284131616e+02
3.9611090699e+02
3.8776537119e+02
3.7771289502e+02
3.6613516559e+02
3.5345897014e+02
3.4027506929e+02
3.2722979487e+02
3.1492051457e+02
3.0381835835e+02
2.9422792553e+02
2.8628258926e+02
2.7997007595e+02
2.7518420635e+02
2.7179238012e+02
2.6966787349e+02
2.6854144680e+02
2.6746510740e+02
2.6399955862e+02
2.5416977080e+02
2.3468682965e+02
2.0670624733e+02
1.7683355993e+02
1.5274312412e+02
1.3774760155e+02
1.3023394481e+02
1.2700725658e+02
1.2574235952e+02
1.2526931876e+02
1.2509654816e+02
1.2503428674e+02
1.2501206638e+02
1.2500420625e+02
1.2500145127e+02
1.2500049519e+02
1.2500016696e+02
1.2500005559e+02
1.2500001826e+02
1.2500000593e+02
1.2500000193e+02
1.2500000081e+02
9.9999999502e+02
9.9999999067e+02
9.9999997703e+02
9.9999994314e+02
9.9999986186e+02
9.9999967198e+02
9.9999923962e+02
9.9999828019e+02
9.9999620669e+02
9.9999184496e+02
9.9998292048e+02
9.9996517170e+02
9.9993088792e+02
9.9986661923e+02
9.9974979275e+02
9.9954404046e+02
9.9919325764e+02
9.9861481156e+02
9.9769289925e+02
9.9627369550e+02
9.9416439535e+02
9.9113820906e+02
9.8694654350e+02
9.8133799555e+02
9.7408179106e+02
9.6499165816e+02
9.5394556433e+02
9.4089760191e+02
9.2588028018e+02
9.0899779894e+02
8.9041270403e+02
8.7032916518e+02
8.4897596007e+02
8.2659143664e+02
8.0341169988e+02
7.7966236883e+02
7.5555363697e+02
7.3127805688e+02
7.0701038830e+02
6.8290890688e+02
6.5911769096e+02
6.3576953308e+02
6.1298922918e+02
5.9089706312e+02
5.6961231151e+02
5.4925652722e+02
5.2995619631e+02
5.1184408116e+02
4.9505816637e+02
4.7973668925e+02
4.6600749004e+02
4.5397028119e+02
4.4367191375e+02
4.3507742728e+02
4.2804263841e+02
4.2229541409e+02
4.1743885483e+02
4.1296325533e+02
4.0829112344e+02
4.0284131616e+02
3.9611090699e+02
3.8776537119e+02
3.7771289502e+02
3.6613516559e+02
3.5345897014e+02
3.4027506929e+02
3.2722979487e+02
3.1492051457e+02
3.0381835835e+02
2.9422792553e+02
2.8628258926e+02
2.7997007595e+02
2.7518420635e+02
2.7179238012e+02
2.6966787349e+02
2.6854144680e+02
2.6746510740e+02
2.6399955862e+02
2.5416977080e+02
2.3468682965e+02
2.0670624733e+02
1.7683355993e+02
1.5274312412e+02
1.3774760155e+02
1.3023394481e+02
1.2700725658e+02
1.2574235952e+02
1.2526931876e+02
1.2509654816e+02
1.2503428674e+02
1.2501206638e+02
1.2500420625e+02
1.2500145127e+02
1.2500049519e+02
1.2500016696e+02
1.2500005559e+02
1.2500001826e+02
1.2500000593e+02
1.2500000193e+02
1.2500000081e+02
9.9999999502e+02
9.9999999067e+02
9.9999997703e+02
9.9999994314e+02
9.9999986186e+02
9.9999967198e+02
9.9999923962e+02
9.9999828019e+02
9.9999620669e+02
9.9999184496e+02
9.9998292048e+02
9.9996517170e+02
9.9993088792e+02
9.9986661923e+02
9.9974979275e+02
9.9954404046e+02
9.9919325764e+02
9.9861481156e+02
9.9769289925e+02
9.9627369550e+02
9.9416439535e+02
9.9113820906e+02
9.8694654350e+02
9.8133799555e+02
9.7408179106e+02
9.6499165816e+02
9.5394556433e+02
9.4089760191e+02
9.2588028018e+02
9.0899779894e+02
8.9041270403e+02
8.7032916518e+02
8.4897596007e+02
8.2659143664e+02
8.0341169988e+02
7.7966236883e+02
7.5555363697e+02
7.3127805688e+02
7.0701038830e+02
6.8290890688e+02
6.5911769096e+02
6.3576953308e+02
6.1298922918e+02
5.9089706312e+02
5.6961231151e+02
5.4925652722e+02
5.2995619631e+02
5.1184408116e+02
4.9505816637e+02
4.7973668925e+02
4.6600749004e+02
4.5397028119e+02
4.4367191375e+02
4.3507742728e+02
4.2804263841e+02
4.2229541409e+02
4.1743885483e+02
4.1296325533e+02
4.0829112344e+02
4.0284131616e+02
3.9611090699e+02
3.8776537119e+02
3.7771289502e+02
3.6613516559e+02
3.5345897014e+02
3.4027506929e+02
3.2722979487e+02
3.1492051457e+02
3.0381835835e+02
2.9422792553e+02
2.8628258926e+02
2.7997007595e+02
2.7518420635e+02
2.7179238012e+02
2.6966787349e+02
2.6854144680e+02
2.6746510740e+02
2.6399955862e+02
2.5416977080e+02
2.3468682965e+02
2.0670624733e+02
1.7683355993e+02
1.5274312412e+02
1.3774760155e+02
1.3023394481e+02
1.2700725658e+02
1.2574235952e+02
1.2526931876e+02
1.2509654816e+02
1.2503428674e+02
1.2501206638e+02
1.2500420625e+02
1.2500145127e+02
1.2500049519e+02
1.2500016696e+02
1.2500005559e+02
1.2500001826e+02
1.2500000593e+02
1.2500000193e+02
1.2500000081e+02
9.9999999502e+02
9.9999999067e+02
9.9999997703e+02
9.9999994314e+02
9.9999986186e+02
9.9999967198e+02
9.9999923962e+02
9.9999828019e+02
9.9999620669e+02
9.9999184496e+02
9.9998292048e+02
9.9996517170e+02
9.9993088792e+02
9.9986661923e+02
9.9974979275e+02
9.9954404046e+02
9.9919325764e+02
9.9861481156e+02
9.9769289925e+02
9.9627369550e+02
9.9416439535e+02
9.9113820906e+02
9.8694654350e+02
9.8133799555e+02
9.7408179106e+02
9.6499165816e+02
9.5394556433e+02
9.4089760191e+02
9.2588028018e+02
9.0899779894e+02
8.9041270403e+02
8.7032916518e+02
8.4897596007e+02
8.2659143664e+02
8.0341169988e+02
7.7966236883e+02
7.5555363697e+02
7.3127805688e+02
7.0701038830e+02
6.8290890688e+02
6.5911769096e+02
6.3576953308e+02
6.1298922918e+02
5.9089706312e+02
5.6961231151e+02
5.4925652722e+02
5.2995619631e+02
5.1184408116e+02
4.9505816637e+02
4.7973668925e+02
4.6600749004e+02
4.5397028119e+02
4.4367191375e+02
4.3507742728e+02
4.2804263841e+02
4.2229541409e+02
4.1743885483e+02
4.1296325533e+02
4.0829112344e+02
4.0284131616e+02
3.9611090699e+02
3.8776537119e+02
3.7771289502e+02
3.6613516559e+02
3.5345897014e+02
3.4027506929e+02
3.2722979487e+02
3.1492051457e+02
3.0381835835e+02
2.9422792553e+02
2.8628258926e+02
2.7997007595e+02
2.7518420635e+02
2.7179238012e+02
2.6966787349e+02
2.6854144680e+02
2.6746510740e+02
2.6399955862e+02
2.5416977080e+02
2.3468682965e+02
2.0670624733e+02
1.7683355993e+02
1.5274312412e+02
1.3774760155e+02
1.3023394481e+02
1.2700725658e+02
1.2574235952e+02
1.2526931876e+02
1.2509654816e+02
1.2503428674e+02
1.2501206638e+02
1.2500420625e+02
1.2500145127e+02
1.2500049519e+02
1.2500016696e+02
1.2500005559e+02
1.2500001826e+02
1.2500000593e+02
1.2500000193e+02
1.2500000081e+02
9.9999999502e+02
9.9999999067e+02
9.9999997703e+02
9.9999994314e+02
9.9999986186e+02
9.9999967198e+02
9.9999923962e+02
9.9999828019e+02
9.9999620669e+02
9.9999184496e+02
9.9998292048e+02
9.9996517170e+02
9.9993088792e+02
9.9986661923e+02
9.9974979275e+02
9.9954404046e+02
9.9919325764e+02
9.9861481156e+02
9.9769289925e+02
9.9627369550e+02
9.9416439535e+02
9.9113820906e+02
9.8694654350e+02
9.8133799555e+02
9.7408179106e+02
9.6499165816e+02
9.5394556433e+02
9.4089760191e+02
9.2588028018e+02
9.0899779894e+02
8.9041270403e+02
8.7032916518e+02
8.4897596007e+02
8.2659143664e+02
8.0341169988e+02
7.7966236883e+02
7.5555363697e+02
7.3127805688e+02
7.0701038830e+02
6.8290890688e+02
6.5911769096e+02
6.3576953308e+02
6.1298922918e+02
5.9089706312e+02
5.6961231151e+02
5.4925652722e+02
5.2995619631e+02
5.1184408116e+02
4.9505816637e+02
4.7973668925e+02
4.6600749004e+02
4.5397028119e+02
4.4367191375e+02
4.3507742728e+02
4.2804263841e+02
4.2229541409e+02
4.1743885483e+02
4.1296325533e+02
4.0829112344e+02
4.0284131616e+02
3.9611090699e+02
3.8776537119e+02
3.7771289502e+02
3.6613516559e+02
3.5345897014e+02
3.4027506929e+02
3.2722979487e+02
3.1492051457e+02
3.0381835835e+02
2.9422792553e+02
2.8628258926e+02
2.7997007595e+02
2.7518420635e+02
2.7179238012e+02
2.6966787349e+02
2.6854144680e+02
2.6746510740e+02
2.6399955862e+02
2.5416977080e+02
2.3468682965e+02
2.0670624733e+02
1.7683355993e+02
1.5274312412e+02
1.3774760155e+02
1.3023394481e+02
1.2700725658e+02
1.2574235952e+02
1.2526931876e+02
1.2509654816e+02
1.2503428674e+02
1.2501206638e+02
1.2500420625e+02
1.2500145127e+02
1.2500049519e+02
1.2500016696e+02
1.2500005559e+02
1.2500001826e+02
1.2500000593e+02
1.2500000193e+02
1.2500000081e+02
9.9999999502e+02
9.9999999067e+02
9.9999997703e+02
9.9999994314e+02
9.9999986186e+02
9.9999967198e+02
9.9999923962e+02
9.9999828019e+02
9.9999620669e+02
9.9999184496e+02
9.9998292048e+02
9.9996517170e+02
9.9993088792e+02
9.9986661923e+02
9.9974979275e+02
9.9954404046e+02
9.9919325764e+02
9.9861481156e+02
9.9769289925e+02
9.9627369550e+02
9.9416439535e+02
9.9113820906e+02
9.8694654350e+02
9.8133799555e+02
9.7408179106e+02
9.6499165816e+02
9.5394556433e+02
9.4089760191e+02
9.2588028018e+02
9.0899779894e+02
8.9041270403e+02
8.7032916518e+02
8.4897596007e+02
8.2659143664e+02
8.0341169988e+02
7.7966236883e+02
7.5555363697e+02
7.3127805688e+02
7.0701038830e+02
6.8290890688e+02
6.5911769096e+02
6.3576953308e+02
6.1298922918e+02
5.9089706312e+02
5.6961231151e+02
5.4925652722e+02
5.2995619631e+02
5.1184408116e+02
4.9505816637e+02
4.7973668925e+02
4.6600749004e+02
4.5397028119e+02
4.4367191375e+02
4.3507742728e+02
4.2804263841e+02
4.2229541409e+02
4.1743885483e+02
4.1296325533e+02
4.0829112344e+02
4.0284131616e+02
3.9611090699e+02
3.8776537119e+02
3.7771289502e+02
3.6613516559e+02
3.5345897014e+02
3.4027506929e+02
3.2722979487e+02
3.1492051457e+02
3.0381835835e+02
2.9422792553e+02
2.8628258926e+02
2.7997007595e+02
2.7518420635e+02
2.7179238012e+02
2.6966787349e+02
2.6854144680e+02
2.6746510740e+02
2.6399955862e+02
2.5416977080e+02
2.3468682965e+02
2.0670624733e+02
1.7683355993e+02
1.5274312412e+02
1.3774760155e+02
1.3023394481e+02
1.2700725658e+02
1.2574235952e+02
1.2526931876e+02
1.2509654816e+02
1.2503428674e+02
1.2501206638e+02
1.2500420625e+02
1.2500145127e+02
1.2500049519e+02
1.2500016696e+02
1.2500005559e+02
1.2500001826e+02
1.2500000593e+02
1.2500000193e+02
1.2500000081e+02
9.9999999502e+02
9.9999999067e+02
9.9999997703e+02
9.9999994314e+02
9.9999986186e+02
9.9999967198e+02
9.9999923962e+02
9.9999828019e+02
9.9999620669e+02
9.9999184496e+02
9.9998292048e+02
9.9996517170e+02
9.9993088792e+02
9.9986661923e+02
9.9974979275e+02
9.9954404046e+02
9.9919325764e+02
9.9861481156e+02
9.9769289925e+02
9.9627369550e+02
9.9416439535e+02
9.9113820906e+02
9.8694654350e+02
9.8133799555e+02
9.7408179106e+02
9.6499165816e+02
9.5394556433e+02
9.4089760191e+02
9.2588028018e+02
9.0899779894e+02
8.9041270403e+02
8.7032916518e+02
8.4897596007e+02
8.2659143664e+02
8.0341169988e+02
7.7966236883e+02
7.5555363697e+02
7.3127805688e+02
7.0701038830e+02
6.8290890688e+02
6.5911769096e+02
6.3576953308e+02
6.1298922918e+02
5.9089706312e+02
5.6961231151e+02
5.4925652722e+02
5.2995619631e+02
5.1184408116e+02
4.9505816637e+02
4.7973668925e+02
4.6600749004e+02
4.5397028119e+02
4.4367191375e+02
4.3507742728e+02
4.2804263841e+02
4.2229541409e+02
4.1743885483e+02
4.1296325533e+02
4.0829112344e+02
4.0284131616e+02
3.9611090699e+02
3.8776537119e+02
3.7771289502e+02
3.6613516559e+02
3.5345897014e+02
3.4027506929e+02
3.2722979487e+02
3.1492051457e+02
3.0381835835e+02
2.9422792553e+02
2.8628258926e+02
2.7997007595e+02
2.7518420635e+02
2.7179238012e+02
2.6966787349e+02
2.6854144680e+02
2.6746510740e+02
2.6399955862e+02
2.5416977080e+02
2.3468682965e+02
2.0670624733e+02
1.7683355993e+02
1.5274312412e+02
1.3774760155e+02
1.3023394481e+02
1.2700725658e+02
1.2574235952e+02
1.2526931876e+02
1.2509654816e+02
1.2503428674e+02
1.2501206638e+02
1.2500420625e+02
1.2500145127e+02
1.2500049519e+02
1.2500016696e+02
1.2500005559e+02
1.2500001826e+02
1.2500000593e+02
1.2500000193e+02
1.2500000081e+02
9.9999999502e+02
9.9999999067e+02
9.9999997703e+02
9.9999994314e+02
9.9999986186e+02
9.9999967198e+02
9.9999923962e+02
9.9999828019e+02
9.9999620669e+02
9.9999184496e+02
9.9998292048e+02
9.9996517170e+02
9.9993088792e+02
9.9986661923e+02
9.9974979275e+02
9.9954404046e+02
9.9919325764e+02
9.9861481156e+02
9.9769289925e+02
9.9627369550e+02
9.9416439535e+02
9.9113820906e+02
9.8694654350e+02
9.8133799555e+02
9.7408179106e+02
9.6499165816e+02
9.5394556433e+02
9.4089760191e+02
9.2588028018e+02
9.0899779894e+02
8.9041270403e+02
8.7032916518e+02
8.4897596007e+02
8.2659143664e+02
8.0341169988e+02
7.7966236883e+02
7.5555363697e+02
7.3127805688e+02
7.0701038830e+02
6.8290890688e+02
6.5911769096e+02
6.3576953308e+02
6.1298922918e+02
5.9089706312e+02
5.6961231151e+02
5.4925652722e+02
5.2995619631e+02
5.1184408116e+02
4.9505816637e+02
4.7973668925e+02
4.6600749004e+02
4.5397028119e+02
4.4367191375e+02
4.3507742728e+02
4.2804263841e+02
4.2229541409e+02
4.1743885483e+02
4.1296325533e+02
4.0829112344e+02
4.0284131616e+02
3.9611090699e+02
3.8776537119e+02
3.7771289502e+02
3.6613516559e+02
3.5345897014e+02
3.4027506929e+02
3.2722979487e+02
3.1492051457e+02
3.0381835835e+02
2.9422792553e+02
2.8628258926e+02
2.7997007595e+02
2.7518420635e+02
2.7179238012e+02
2.6966787349e+02
2.6854144680e+02
2.6746510740e+02
2.6399955862e+02
2.5416977080e+02
2.3468682965e+02
2.0670624733e+02
1.7683355993e+02
1.5274312412e+02
1.3774760155e+02
1.3023394481e+02
1.2700725658e+02
1.2574235952e+02
1.2526931876e+02
1.2509654816e+02
1.2503428674e+02
1.2501206638e+02
1.2500420625e+02
1.2500145127e+02
1.2500049519e+02
1.2500016696e+02
1.2500005559e+02
1.2500001826e+02
1.2500000593e+02
1.2500000193e+02
1.2500000081e+02
9.9999999502e+02
9.9999999067e+02
9.9999997703e+02
9.9999994314e+02
9.9999986186e+02
9.9999967198e+02
9.9999923962e+02
9.9999828019e+02
9.9999620669e+02
9.9999184496e+02
9.9998292048e+02
9.9996517170e+02
9.9993088792e+02
9.9986661923e+02
9.9974979275e+02
9.9954404046e+02
9.9919325764e+02
9.9861481156e+02
9.9769289925e+02
9.9627369550e+02
9.9416439535e+02
9.9113820906e+02
9.8694654350e+02
9.8133799555e+02
9.7408179106e+02
9.6499165816e+02
9.5394556433e+02
9.4089760191e+02
9.2588028018e+02
9.0899779894e+02
8.9041270403e+02
8.7032916518e+02
8.4897596007e+02
8.2659143664e+02
8.0341169988e+02
7.7966236883e+02
7.5555363697e+02
7.3127805688e+02
7.0701038830e+02
6.8290890688e+02
6.5911769096e+02
6.3576953308e+02
6.1298922918e+02
5.9089706312e+02
5.6961231151e+02
5.4925652722e+02
5.2995619631e+02
5.1184408116e+02
4.9505816637e+02
4.7973668925e+02
4.6600749004e+02
4.5397028119e+02
4.4367191375e+02
4.3507742728e+02
4.2804263841e+02
4.2229541409e+02
4.1743885483e+02
4.1296325533e+02
4.0829112344e+02
4.0284131616e+02
3.9611090699e+02
3.8776537119e+02
3.7771289502e+02
3.6613516559e+02
3.5345897014e+02
3.4027506929e+02
3.2722979487e+02
3.1492051457e+02
3.0381835835e+02
2.9422792553e+02
2.8628258926e+02
2.7997007595e+02
2.7518420635e+02
2.7179238012e+02
2.6966787349e+02
2.6854144680e+02
2.6746510740e+02
2.6399955862e+02
2.5416977080e+02
2.3468682965e+02
2.0670624733e+02
1.7683355993e+02
1.5274312412e+02
1.3774760155e+02
1.3023394481e+02
1.2700725658e+02
1.2574235952e+02
1.2526931876e+02
1.2509654816e+02
1.2503428674e+02
1.2501206638e+02
1.2500420625e+02
1.2500145127e+02
1.2500049519e+02
1.2500016696e+02
1.2500005559e+02
1.2500001826e+02
1.2500000593e+02
1.2500000193e+02
1.2500000081e+02
9.9999999502e+02
9.9999999067e+02
9.9999997703e+02
9.9999994314e+02
9.9999986186e+02
9.9999967198e+02
9.9999923962e+02
9.9999828019e+02
9.9999620669e+02
9.9999184496e+02
9.9998292048e+02
9.9996517170e+02
9.9993088792e+02
9.9986661923e+02
9.9974979275e+02
9.9954404046e+02
9.9919325764e+02
9.9861481156e+02
9.9769289925e+02
9.9627369550e+02
9.9416439535e+02
9.9113820906e+02
9.8694654350e+02
9.8133799555e+02
9.7408179106e+02
9.6499165816e+02
9.5394556433e+02
9.4089760191e+02
9.2588028018e+02
9.0899779894e+02
8.9041270403e+02
8.7032916518e+02
8.4897596007e+02
8.2659143664e+02
8.0341169988e+02
7.7966236883e+02
7.5555363697e+02
7.3127805688e+02
7.0701038830e+02
6.8290890688e+02
6.5911769096e+02
6.3576953308e+02
6.1298922918e+02
5.9089706312e+02
5.6961231151e+02
5.4925652722e+02
5.2995619631e+02
5.1184408116e+02
4.9505816637e+02
4.7973668925e+02
4.6600749004e+02
4.5397028119e+02
4.4367191375e+02
4.3507742728e+02
4.2804263841e+02
4.2229541409e+02
4.1743885483e+02
4.1296325533e+02
4.0829112344e+02
4.0284131616e+02
3.9611090699e+02
3.8776537119e+02
3.7771289502e+02
3.6613516559e+02
3.5345897014e+02
3.4027506929e+02
3.2722979487e+02
3.1492051457e+02
3.0381835835e+02
2.9422792553e+02
2.8628258926e+02
2.7997007595e+02
2.7518420635e+02
2.7179238012e+02
2.6966787349e+02
2.6854144680e+02
2.6746510740e+02
2.6399955862e+02
2.5416977080e+02
2.3468682965e+02
2.0670624733e+02
1.7683355993e+02
1.5274312412e+02
1.3774760155e+02
1.3023394481e+02
1.2700725658e+02
1.2574235952e+02
1.2526931876e+02
1.2509654816e+02
1.2503428674e+02
1.2501206638e+02
1.2500420625e+02
1.2500145127e+02
1.2500049519e+02
1.2500016696e+02
1.2500005559e+02
1.2500001826e+02
1.2500000593e+02
1.2500000193e+02
1.2500000081e+02

SCALARS molarDensity float
LOOKUP_TABLE default
1.2977624068e+05
1.2977624012e+05
1.2977623835e+05
1.2977623395e+05
1.2977622340e+05
1.2977619876e+05
1.2977614265e+05
1.2977601814e+05
1.2977574905e+05
1.2977518300e+05
1.2977402481e+05
1.2977172144e+05
1.2976727222e+05
1.2975893167e+05
1.2974377037e+05
1.2971706861e+05
1.2967154534e+05
1.2959647678e+05
1.2947683446e+05
1.2929265554e+05
1.2901891849e+05
1.2862619141e+05
1.2808221281e+05
1.2735435653e+05
1.2641267359e+05
1.2523299031e+05
1.2379946977e+05
1.2210615425e+05
1.2015726268e+05
1.1796631772e+05
1.1555441396e+05
1.1294804777e+05
1.1017690908e+05
1.0727192976e+05
1.0426375065e+05
1.0118165173e+05
9.8052911127e+04
9.4902517587e+04
9.1753150772e+04
8.8625351103e+04
8.5537816525e+04
8.2507780353e+04
7.9551438137e+04
7.6684399863e+04
7.3922144801e+04
7.1280447627e+04
6.8775723225e+04
6.6425200999e+04
6.4246788070e+04
6.2258424358e+04
6.0476700488e+04
5.8914556767e+04
5.7578073349e+04
5.6462713199e+04
5.5549764741e+04
5.4803911570e+04
5.4173645563e+04
5.3592819083e+04
5.2986487367e+04
5.2279231863e+04
5.1405784657e+04
5.0322732390e+04
4.9018159816e+04
4.7515645608e+04
4.5870576609e+04
4.4159619510e+04
4.2466652829e+04
4.0869200698e+04
3.9428404592e+04
3.8183794269e+04
3.7152678392e+04
3.6333464140e+04
3.5712371972e+04
3.5272193514e+04
3.4996483028e+04
3.4850299606e+04
3.4710616325e+04
3.4260870429e+04
3.2985197513e+04
3.0456774640e+04
2.6825559837e+04
2.2948794748e+04
1.9822428537e+04
1.7876365980e+04
1.6901271851e+04
1.6482524381e+04
1.6318370795e+04
1.6256981342e+04
1.6234559823e+04
1.6226479770e+04
1.6223596095e+04
1.6222576037e+04
1.6222218506e+04
1.6222094430e+04
1.6222051834e+04
1.6222037380e+04
1.6222032536e+04
1.6222030935e+04
1.6222030416e+04
1.6222030271e+04
1.2977624068e+05
1.2977624012e+05
1.2977623835e+05
1.2977623395e+05
1.2977622340e+05
1.2977619876e+05
1.2977614265e+05
1.2977601814e+05
1.2977574905e+05
1.2977518300e+05
1.2977402481e+05
1.2977172144e+05
1.2976727222e+05
1.2975893167e+05
1.2974377037e+05
1.2971706861e+05
1.2967154534e+05
1.2959647678e+05
1.2947683446e+05
1.2929265554e+05
1.2901891849e+05
1.2862619141e+05
1.2808221281e+05
1.2735435653e+05
1.2641267359e+05
1.2523299031e+05
1.2379946977e+05
1.2210615425e+05
1.2015726268e+05
1.1796631772e+05
1.1555441396e+05
1.1294804777e+05
1.1017690908e+05
1.0727192976e+05
1.0426375065e+05
1.0118165173e+05
9.8052911127e+04
9.4902517587e+04
9.1753150772e+04
8.8625351103e+04
8.5537816525e+04
8.2507780353e+04
7.9551438137e+04
7.6684399863e+04
7.3922144801e+04
7.1280447627e+04
6.8775723225e+04
6.6425200999e+04
6.4246788070e+04
6.2258424358e+04
6.0476700488e+04
5.8914556767e+04
5.7578073349e+04
5.6462713199e+04
5.5549764741e+04
5.4803911570e+04
5.4173645563e+04
5.3592819083e+04
5.2986487367e+04
5.2279231863e+04
5.1405784657e+04
5.0322732390e+04
4.9018159816e+04
4.7515645608e+04
4.5870576609e+04
4.4159619510e+04
4.2466652829e+04
4.0869200698e+04
3.9428404592e+04