# vtk DataFile Version 2.0
Blank
ASCII
DATASET STRUCTURED_GRID
DIMENSIONS 101 11 2
POINTS 2222 float
0.0000000000e+00 0.0000000000e+00 0.0000000000e+00
1.0000000000e-02 0.0000000000e+00 0.0000000000e+00
2.0000000000e-02 0.0000000000e+00 0.0000000000e+00
3.0000000000e-02 0.0000000000e+00 0.0000000000e+00
4.0000000000e-02 0.0000000000e+00 0.0000000000e+00
5.0000000000e-02 0.0000000000e+00 0.0000000000e+00
6.0000000000e-02 0.0000000000e+00 0.0000000000e+00
7.0000000000e-02 0.0000000000e+00 0.0000000000e+00
8.0000000000e-02 0.0000000000e+00 0.0000000000e+00
9.0000000000e-02 0.0000000000e+00 0.0000000000e+00
1.0000000000e-01 0.0000000000e+00 0.0000000000e+00
1.1000000000e-01 0.0000000000e+00 0.0000000000e+00
1.2000000000e-01 0.0000000000e+00 0.0000000000e+00
1.3000000000e-01 0.0000000000e+00 0.0000000000e+00
1.4000000000e-01 0.0000000000e+00 0.0000000000e+00
1.5000000000e-01 0.0000000000e+00 0.0000000000e+00
1.6000000000e-01 0.0000000000e+00 0.0000000000e+00
1.7000000000e-01 0.0000000000e+00 0.0000000000e+00
1.8000000000e-01 0.0000000000e+00 0.0000000000e+00
1.9000000000e-01 0.0000000000e+00 0.0000000000e+00
2.0000000000e-01 0.0000000000e+00 0.0000000000e+00
2.1000000000e-01 0.0000000000e+00 0.0000000000e+00
2.2000000000e-01 0.0000000000e+00 0.0000000000e+00
2.3000000000e-01 0.0000000000e+00 0.0000000000e+00
2.4000000000e-01 0.0000000000e+00 0.0000000000e+00
2.5000000000e-01 0.0000000000e+00 0.0000000000e+00
2.6000000000e-01 0.0000000000e+00 0.0000000000e+00
2.7000000000e-01 0.0000000000e+00 0.0000000000e+00
2.8000000000e-01 0.0000000000e+00 0.0000000000e+00
2.9000000000e-01 0.0000000000e+00 0.0000000000e+00
3.0000000000e-01 0.0000000000e+00 0.0000000000e+00
3.1000000000e-01 0.0000000000e+00 0.0000000000e+00
3.2000000000e-01 0.0000000000e+00 0.0000000000e+00
3.3000000000e-01 0.0000000000e+00 0.0000000000e+00
3.4000000000e-01 0.0000000000e+00 0.0000000000e+00
3.5000000000e-01 0.0000000000e+00 0.0000000000e+00
3.6000000000e-01 0.0000000000e+00 0.0000000000e+00
3.7000000000e-01 0.0000000000e+00 0.0000000000e+00
3.8000000000e-01 0.0000000000e+00 0.0000000000e+00
3.9000000000e-01 0.0000000000e+00 0.0000000000e+00
4.0000000000e-01 0.0000000000e+00 0.0000000000e+00
4.1000000000e-01 0.0000000000e+00 0.0000000000e+00
4.2000000000e-01 0.0000000000e+00 0.0000000000e+00
4.3000000000e-01 0.0000000000e+00 0.0000000000e+00
4.4000000000e-01 0.0000000000e+00 0.0000000000e+00
4.5000000000e-01 0.0000000000e+00 0.0000000000e+00
4.6000000000e-01 0.0000000000e+00 0.0000000000e+00
4.7000000000e-01 0.0000000000e+00 0.0000000000e+00
4.8000000000e-01 0.0000000000e+00 0.0000000000e+00
4.9000000000e-01 0.0000000000e+00 0.0000000000e+00
5.0000000000e-01 0.0000000000e+00 0.0000000000e+00
5.1000000000e-01 0.0000000000e+00 0.0000000000e+00
5.2000000000e-01 0.0000000000e+00 0.0000000000e+00
5.3000000000e-01 0.0000000000e+00 0.0000000000e+00
5.4000000000e-01 0.0000000000e+00 0.0000000000e+00
5.5000000000e-01 0.0000000000e+00 0.0000000000e+00
5.6000000000e-01 0.0000000000e+00 0.0000000000e+00
5.7000000000e-01 0.0000000000e+00 0.0000000000e+00
5.8000000000e-01 0.0000000000e+00 0.0000000000e+00
5.9000000000e-01 0.0000000000e+00 0.0000000000e+00
6.0000000000e-01 0.0000000000e+00 0.0000000000e+00
6.1000000000e-01 0.0000000000e+00 0.0000000000e+00
6.2000000000e-01 0.0000000000e+00 0.0000000000e+00
6.3000000000e-01 0.0000000000e+00 0.0000000000e+00
6.4000000000e-01 0.0000000000e+00 0.0000000000e+00
6.5000000000e-01 0.0000000000e+00 0.0000000000e+00
6.6000000000e-01 0.0000000000e+00 0.0000000000e+00
6.7000000000e-01 0.0000000000e+00 0.0000000000e+00
6.8000000000e-01 0.0000000000e+00 0.0000000000e+00
6.9000000000e-01 0.0000000000e+00 0.0000000000e+00
7.0000000000e-01 0.0000000000e+00 0.0000000000e+00
7.1000000000e-01 0.0000000000e+00 0.0000000000e+00
7.2000000000e-01 0.0000000000e+00 0.0000000000e+00
7.3000000000e-01 0.0000000000e+00 0.0000000000e+00
7.4000000000e-01 0.0000000000e+00 0.0000000000e+00
7.5000000000e-01 0.0000000000e+00 0.0000000000e+00
7.6000000000e-01 0.0000000000e+00 0.0000000000e+00
7.7000000000e-01 0.0000000000e+00 0.0000000000e+00
7.8000000000e-01 0.0000000000e+00 0.0000000000e+00
7.9000000000e-01 0.0000000000e+00 0.0000000000e+00
8.0000000000e-01 0.0000000000e+00 0.0000000000e+00
8.1000000000e-01 0.0000000000e+00 0.0000000000e+00
8.2000000000e-01 0.0000000000e+00 0.0000000000e+00
8.3000000000e-01 0.0000000000e+00 0.0000000000e+00
8.4000000000e-01 0.0000000000e+00 0.0000000000e+00
8.5000000000e-01 0.0000000000e+00 0.0000000000e+00
8.6000000000e-01 0.0000000000e+00 0.0000000000e+00
8.7000000000e-01 0.0000000000e+00 0.0000000000e+00
8.8000000000e-01 0.0000000000e+00 0.0000000000e+00
8.9000000000e-01 0.0000000000e+00 0.0000000000e+00
9.0000000000e-01 0.0000000000e+00 0.0000000000e+00
9.1000000000e-01 0.0000000000e+00 0.0000000000e+00
9.2000000000e-01 0.0000000000e+00 0.0000000000e+00
9.3000000000e-01 0.0000000000e+00 0.0000000000e+00
9.4000000000e-01 0.0000000000e+00 0.0000000000e+00
9.5000000000e-01 0.0000000000e+00 0.0000000000e+00
9.6000000000e-01 0.0000000000e+00 0.0000000000e+00
9.7000000000e-01 0.0000000000e+00 0.0000000000e+00
9.8000000000e-01 0.0000000000e+00 0.0000000000e+00
9.9000000000e-01 0.0000000000e+00 0.0000000000e+00
1.0000000000e+00 0.0000000000e+00 0.0000000000e+00
0.0000000000e+00 1.0000000000e-03 0.0000000000e+00
1.0000000000e-02 1.0000000000e-03 0.0000000000e+00
2.0000000000e-02 1.0000000000e-03 0.0000000000e+00
3.0000000000e-02 1.0000000000e-03 0.0000000000e+00
4.0000000000e-02 1.0000000000e-03 0.0000000000e+00
5.0000000000e-02 1.0000000000e-03 0.0000000000e+00
6.0000000000e-02 1.0000000000e-03 0.0000000000e+00
7.0000000000e-02 1.0000000000e-03 0.0000000000e+00
8.0000000000e-02 1.0000000000e-03 0.0000000000e+00
9.0000000000e-02 1.0000000000e-03 0.0000000000e+00
1.0000000000e-01 1.0000000000e-03 0.0000000000e+00
1.1000000000e-01 1.0000000000e-03 0.0000000000e+00
1.2000000000e-01 1.0000000000e-03 0.0000000000e+00
1.3000000000e-01 1.0000000000e-03 0.0000000000e+00
1.4000000000e-01 1.0000000000e-03 0.0000000000e+00
1.5000000000e-01 1.0000000000e-03 0.0000000000e+00
1.6000000000e-01 1.0000000000e-03 0.0000000000e+00
1.7000000000e-01 1.0000000000e-03 0.0000000000e+00
1.8000000000e-01 1.0000000000e-03 0.0000000000e+00
1.9000000000e-01 1.0000000000e-03 0.0000000000e+00
2.0000000000e-01 1.0000000000e-03 0.0000000000e+00
2.1000000000e-01 1.0000000000e-03 0.0000000000e+00
2.2000000000e-01 1.0000000000e-03 0.0000000000e+00
2.3000000000e-01 1.0000000000e-03 0.0000000000e+00
2.4000000000e-01 1.0000000000e-03 0.0000000000e+00
2.5000000000e-01 1.0000000000e-03 0.0000000000e+00
2.6000000000e-01 1.0000000000e-03 0.0000000000e+00
2.7000000000e-01 1.0000000000e-03 0.0000000000e+00
2.8000000000e-01 1.0000000000e-03 0.0000000000e+00
2.9000000000e-01 1.0000000000e-03 0.0000000000e+00
3.0000000000e-01 1.0000000000e-03 0.0000000000e+00
3.1000000000e-01 1.0000000000e-03 0.0000000000e+00
3.2000000000e-01 1.0000000000e-03 0.0000000000e+00
3.3000000000e-01 1.0000000000e-03 0.0000000000e+00
3.4000000000e-01 1.0000000000e-03 0.0000000000e+00
3.5000000000e-01 1.0000000000e-03 0.0000000000e+00
3.6000000000e-01 1.0000000000e-03 0.0000000000e+00
3.7000000000e-01 1.0000000000e-03 0.0000000000e+00
3.8000000000e-01 1.0000000000e-03 0.0000000000e+00
3.9000000000e-01 1.0000000000e-03 0.0000000000e+00
4.0000000000e-01 1.0000000000e-03 0.0000000000e+00
4.1000000000e-01 1.0000000000e-03 0.0000000000e+00
4.2000000000e-01 1.0000000000e-03 0.0000000000e+00
4.3000000000e-01 1.0000000000e-03 0.0000000000e+00
4.4000000000e-01 1.0000000000e-03 0.0000000000e+00
4.5000000000e-01 1.0000000000e-03 0.0000000000e+00
4.6000000000e-01 1.0000000000e-03 0.0000000000e+00
4.7000000000e-01 1.0000000000e-03 0.0000000000e+00
4.8000000000e-01 1.0000000000e-03 0.0000000000e+00
4.9000000000e-01 1.0000000000e-03 0.0000000000e+00
5.0000000000e-01 1.0000000000e-03 0.0000000000e+00
5.1000000000e-01 1.0000000000e-03 0.0000000000e+00
5.2000000000e-01 1.0000000000e-03 0.0000000000e+00
5.3000000000e-01 1.0000000000e-03 0.0000000000e+00
5.4000000000e-01 1.0000000000e-03 0.0000000000e+00
5.5000000000e-01 1.0000000000e-03 0.0000000000e+00
5.6000000000e-01 1.0000000000e-03 0.0000000000e+00
5.7000000000e-01 1.0000000000e-03 0.0000000000e+00
5.8000000000e-01 1.0000000000e-03 0.0000000000e+00
5.9000000000e-01 1.0000000000e-03 0.0000000000e+00
6.0000000000e-01 1.0000000000e-03 0.0000000000e+00
6.1000000000e-01 1.0000000000e-03 0.0000000000e+00
6.2000000000e-01 1.0000000000e-03 0.0000000000e+00
6.3000000000e-01 1.0000000000e-03 0.0000000000e+00
6.4000000000e-01 1.0000000000e-03 0.0000000000e+00
6.5000000000e-01 1.0000000000e-03 0.0000000000e+00
6.6000000000e-01 1.0000000000e-03 0.0000000000e+00
6.7000000000e-01 1.0000000000e-03 0.0000000000e+00
6.8000000000e-01 1.0000000000e-03 0.0000000000e+00
6.9000000000e-01 1.0000000000e-03 0.0000000000e+00
7.0000000000e-01 1.0000000000e-03 0.0000000000e+00
7.1000000000e-01 1.0000000000e-03 0.0000000000e+00
7.2000000000e-01 1.0000000000e-03 0.0000000000e+00
7.3000000000e-01 1.0000000000e-03 0.0000000000e+00
7.4000000000e-01 1.0000000000e-03 0.0000000000e+00
7.5000000000e-01 1.0000000000e-03 0.0000000000e+00
7.6000000000e-01 1.0000000000e-03 0.0000000000e+00
7.7000000000e-01 1.0000000000e-03 0.0000000000e+00
7.8000000000e-01 1.0000000000e-03 0.0000000000e+00
7.9000000000e-01 1.0000000000e-03 0.0000000000e+00
8.0000000000e-01 1.0000000000e-03 0.0000000000e+00
8.1000000000e-01 1.0000000000e-03 0.0000000000e+00
8.2000000000e-01 1.0000000000e-03 0.0000000000e+00
8.3000000000e-01 1.0000000000e-03 0.0000000000e+00
8.4000000000e-01 1.0000000000e-03 0.0000000000e+00
8.5000000000e-01 1.0000000000e-03 0.0000000000e+00
8.6000000000e-01 1.0000000000e-03 0.0000000000e+00
8.7000000000e-01 1.0000000000e-03 0.0000000000e+00
8.8000000000e-01 1.0000000000e-03 0.0000000000e+00
8.9000000000e-01 1.0000000000e-03 0.0000000000e+00
9.0000000000e-01 1.0000000000e-03 0.0000000000e+00
9.1000000000e-01 1.0000000000e-03 0.0000000000e+00
9.2000000000e-01 1.0000000000e-03 0.0000000000e+00
[...]
CELL_DATA 1000

SCALARS massDensity float
LOOKUP_TABLE default
9.9999999996e+02
9.9999999996e+02
9.9999999996e+02
9.9999999996e+02
9.9999999996e+02
9.9999999996e+02
9.9999999996e+02
9.9999999996e+02
9.9999999996e+02
9.9999999996e+02
9.9999999996e+02
9.9999999996e+02
9.9999999996e+02
9.9999999996e+02
9.9999999996e+02
9.9999999996e+02
9.9999999995e+02
9.9999999993e+02
9.9999999986e+02
9.9999999954e+02
9.9999999829e+02
9.9999999355e+02
9.9999997629e+02
9.9999991597e+02
9.9999971429e+02
9.9999906958e+02
9.9999710261e+02
9.9999138498e+02
9.9997558030e+02
9.9993412373e+02
9.9983117149e+02
9.9958972250e+02
9.9905637959e+02
9.9794976450e+02
9.9579866666e+02
9.9189007298e+02
9.8526176345e+02
9.7477627441e+02
9.5928988115e+02
9.3788440958e+02
9.1008721289e+02
8.7599890473e+02
8.3628880325e+02
7.9207785599e+02
7.4476899196e+02
6.9588719459e+02
6.4696569336e+02
5.9948238358e+02
5.5482480196e+02
5.1423896005e+02
4.7869468380e+02
4.4859278914e+02
4.2336723463e+02
4.0145528150e+02
3.8074749796e+02
3.5994069892e+02
3.3924153770e+02
3.1998533371e+02
3.0337980994e+02
2.8888697969e+02
2.7311871410e+02
2.5125828259e+02
2.2148969688e+02
1.8819273116e+02
1.5953752507e+02
1.4077587184e+02
1.3121402385e+02
1.2720811113e+02
1.2573411435e+02
1.2523297248e+02
1.2507116534e+02
1.2502098005e+02
1.2500597190e+02
1.2500164094e+02
1.2500043514e+02
1.2500011134e+02
1.2500002749e+02
1.2500000655e+02
1.2500000151e+02
1.2500000034e+02
1.2500000008e+02
1.2500000002e+02
1.2500000001e+02
1.2500000001e+02
1.2500000000e+02
1.2500000000e+02
1.2500000000e+02
1.2500000000e+02
1.2500000000e+02
1.2500000000e+02
1.2500000000e+02
1.2500000000e+02
1.2500000000e+02
1.2500000000e+02
1.2500000000e+02
1.2500000000e+02
1.2500000000e+02
1.2500000000e+02
1.2500000000e+02
1.2500000000e+02
9.9999999996e+02
9.9999999996e+02
9.9999999996e+02
9.9999999996e+02
9.9999999996e+02
9.9999999996e+02
9.9999999996e+02
9.9999999996e+02
9.9999999996e+02
9.9999999996e+02
9.9999999996e+02
9.9999999996e+02
9.9999999996e+02
9.9999999996e+02
9.9999999996e+02
9.9999999996e+02
9.9999999995e+02
9.9999999993e+02
9.9999999986e+02
9.9999999954e+02
9.9999999829e+02
9.9999999355e+02
9.9999997629e+02
9.9999991597e+02
9.9999971429e+02
9.9999906958e+02
9.9999710261e+02
9.9999138498e+02
9.9997558030e+02
9.9993412373e+02
9.9983117149e+02
9.9958972250e+02
9.9905637959e+02
9.9794976450e+02
9.9579866666e+02
9.9189007298e+02
9.8526176345e+02
9.7477627441e+02
9.5928988115e+02
9.3788440958e+02
9.1008721289e+02
8.7599890473e+02
8.3628880325e+02
7.9207785599e+02
7.4476899196e+02
6.9588719459e+02
6.4696569336e+02
5.9948238358e+02
5.5482480196e+02
5.1423896005e+02
4.7869468380e+02
4.4859278914e+02
4.2336723463e+02
4.0145528150e+02
3.8074749796e+02
3.5994069892e+02
3.3924153770e+02
3.1998533371e+02
3.0337980994e+02
2.8888697969e+02
2.7311871410e+02
2.5125828259e+02
2.2148969688e+02
1.8819273116e+02
1.5953752507e+02
1.4077587184e+02
1.3121402385e+02
1.2720811113e+02
1.2573411435e+02
1.2523297248e+02
1.2507116534e+02
1.2502098005e+02
1.2500597190e+02
1.2500164094e+02
1.2500043514e+02
1.2500011134e+02
1.2500002749e+02
1.2500000655e+02
1.2500000151e+02
1.2500000034e+02
1.2500000008e+02
1.2500000002e+02
1.2500000001e+02
1.2500000001e+02
1.2500000000e+02
1.2500000000e+02
1.2500000000e+02
1.2500000000e+02
1.2500000000e+02
1.2500000000e+02
1.2500000000e+02
1.2500000000e+02
1.2500000000e+02
1.2500000000e+02
1.2500000000e+02
1.2500000000e+02
1.2500000000e+02
1.2500000000e+02
1.2500000000e+02
1.2500000000e+02
9.9999999996e+02
9.9999999996e+02
9.9999999996e+02
9.9999999996e+02
9.9999999996e+02
9.9999999996e+02
9.9999999996e+02
9.9999999996e+02
9.9999999996e+02
9.9999999996e+02
9.9999999996e+02
9.9999999996e+02
9.9999999996e+02
9.9999999996e+02
9.9999999996e+02
9.9999999996e+02
9.9999999995e+02
9.9999999993e+02
9.9999999986e+02
9.9999999954e+02
9.9999999829e+02
9.9999999355e+02
9.9999997629e+02
9.9999991597e+02
9.9999971429e+02
9.9999906958e+02
9.9999710261e+02
9.9999138498e+02
9.9997558030e+02
9.9993412373e+02
9.9983117149e+02
9.9958972250e+02
9.9905637959e+02
9.9794976450e+02
9.9579866666e+02
9.9189007298e+02
9.8526176345e+02
9.7477627441e+02
9.5928988115e+02
9.3788440958e+02
9.1008721289e+02
8.7599890473e+02
8.3628880325e+02
7.9207785599e+02
7.4476899196e+02
6.9588719459e+02
6.4696569336e+02
5.9948238358e+02
5.5482480196e+02
5.1423896005e+02
4.7869468380e+02
4.4859278914e+02
4.2336723463e+02
4.0145528150e+02
3.8074749796e+02
3.5994069892e+02
3.3924153770e+02
3.1998533371e+02
3.0337980994e+02
2.8888697969e+02
2.7311871410e+02
2.5125828259e+02
2.2148969688e+02
1.8819273116e+02
1.5953752507e+02
1.4077587184e+02
1.3121402385e+02
1.2720811113e+02
1.2573411435e+02
1.2523297248e+02
1.2507116534e+02
1.2502098005e+02
1.2500597190e+02
1.2500164094e+02
1.2500043514e+02
1.2500011134e+02
1.2500002749e+02
1.2500000655e+02
1.2500000151e+02
1.2500000034e+02
1.2500000008e+02
1.2500000002e+02
1.2500000001e+02
1.2500000001e+02
1.2500000000e+02
1.2500000000e+02
1.2500000000e+02
1.2500000000e+02
1.2500000000e+02
1.2500000000e+02
1.2500000000e+02
1.2500000000e+02
1.2500000000e+02
1.2500000000e+02
1.2500000000e+02
1.2500000000e+02
1.2500000000e+02
1.2500000000e+02
1.2500000000e+02
1.2500000000e+02
9.9999999996e+02
9.9999999996e+02
9.9999999996e+02
9.9999999996e+02
9.9999999996e+02
9.9999999996e+02
9.9999999996e+02
9.9999999996e+02
9.9999999996e+02
9.9999999996e+02
9.9999999996e+02
9.9999999996e+02
9.9999999996e+02
9.9999999996e+02
9.9999999996e+02
9.9999999996e+02
9.9999999995e+02
9.9999999993e+02
9.9999999986e+02
9.9999999954e+02
9.9999999829e+02
9.9999999355e+02
9.9999997629e+02
9.9999991597e+02
9.9999971429e+02
9.9999906958e+02
9.9999710261e+02
9.9999138498e+02
9.9997558030e+02
9.9993412373e+02
9.9983117149e+02
9.9958972250e+02
9.9905637959e+02
9.9794976450e+02
9.9579866666e+02
9.9189007298e+02
9.8526176345e+02
9.7477627441e+02
9.5928988115e+02
9.3788440958e+02
9.1008721289e+02
8.7599890473e+02
8.3628880325e+02
7.9207785599e+02
7.4476899196e+02
6.9588719459e+02
6.4696569336e+02
5.9948238358e+02
5.5482480196e+02
5.1423896005e+02
4.7869468380e+02
4.4859278914e+02
4.2336723463e+02
4.0145528150e+02
3.8074749796e+02
3.5994069892e+02
3.3924153770e+02
3.1998533371e+02
3.0337980994e+02
2.8888697969e+02
2.7311871410e+02
2.5125828259e+02
2.2148969688e+02
1.8819273116e+02
1.5953752507e+02
1.4077587184e+02
1.3121402385e+02
1.2720811113e+02
1.2573411435e+02
1.2523297248e+02
1.2507116534e+02
1.2502098005e+02
1.2500597190e+02
1.2500164094e+02
1.2500043514e+02
1.2500011134e+02
1.2500002749e+02
1.2500000655e+02
1.2500000151e+02
1.2500000034e+02
1.2500000008e+02
1.2500000002e+02
1.2500000001e+02
1.2500000001e+02
1.2500000000e+02
1.2500000000e+02
1.2500000000e+02
1.2500000000e+02
1.2500000000e+02
1.2500000000e+02
1.2500000000e+02
1.2500000000e+02
1.2500000000e+02
1.2500000000e+02
1.2500000000e+02
1.2500000000e+02
1.2500000000e+02
1.2500000000e+02
1.2500000000e+02
1.2500000000e+02
9.9999999996e+02
9.9999999996e+02
9.9999999996e+02
9.9999999996e+02
9.9999999996e+02
9.9999999996e+02
9.9999999996e+02
9.9999999996e+02
9.9999999996e+02
9.9999999996e+02
9.9999999996e+02
9.9999999996e+02
9.9999999996e+02
9.9999999996e+02
9.9999999996e+02
9.9999999996e+02
9.9999999995e+02
9.9999999993e+02
9.9999999986e+02
9.9999999954e+02
9.9999999829e+02
9.9999999355e+02
9.9999997629e+02
9.9999991597e+02
9.9999971429e+02
9.9999906958e+02
9.9999710261e+02
9.9999138498e+02
9.9997558030e+02
9.9993412373e+02
9.9983117149e+02
9.9958972250e+02
9.9905637959e+02
9.9794976450e+02
9.9579866666e+02
9.9189007298e+02
9.8526176345e+02
9.7477627441e+02
9.5928988115e+02
9.3788440958e+02
9.1008721289e+02
8.7599890473e+02
8.3628880325e+02
7.9207785599e+02
7.4476899196e+02
6.9588719459e+02
6.4696569336e+02
5.9948238358e+02
5.5482480196e+02
5.1423896005e+02
4.7869468380e+02
4.4859278914e+02
4.2336723463e+02
4.0145528150e+02
3.8074749796e+02
3.5994069892e+02
3.3924153770e+02
3.1998533371e+02
3.0337980994e+02
2.8888697969e+02
2.7311871410e+02
2.5125828259e+02
2.2148969688e+02
1.8819273116e+02
1.5953752507e+02
1.4077587184e+02
1.3121402385e+02
1.2720811113e+02
1.2573411435e+02
1.2523297248e+02
1.2507116534e+02
1.2502098005e+02
1.2500597190e+02
1.2500164094e+02
1.2500043514e+02
1.2500011134e+02
1.2500002749e+02
1.2500000655e+02
1.2500000151e+02
1.2500000034e+02
1.2500000008e+02
1.2500000002e+02
1.2500000001e+02
1.2500000001e+02
1.2500000000e+02
1.2500000000e+02
1.2500000000e+02
1.2500000000e+02
1.2500000000e+02
1.2500000000e+02
1.2500000000e+02
1.2500000000e+02
1.2500000000e+02
1.2500000000e+02
1.2500000000e+02
1.2500000000e+02
1.2500000000e+02
1.2500000000e+02
1.2500000000e+02
1.2500000000e+02
9.9999999996e+02
9.9999999996e+02
9.9999999996e+02
9.9999999996e+02
9.9999999996e+02
9.9999999996e+02
9.9999999996e+02
9.9999999996e+02
9.9999999996e+02
9.9999999996e+02
9.9999999996e+02
9.9999999996e+02
9.9999999996e+02
9.9999999996e+02
9.9999999996e+02
9.9999999996e+02
9.9999999995e+02
9.9999999993e+02
9.9999999986e+02
9.9999999954e+02
9.9999999829e+02
9.9999999355e+02
9.9999997629e+02
9.9999991597e+02
9.9999971429e+02
9.9999906958e+02
9.9999710261e+02
9.9999138498e+02
9.9997558030e+02
9.9993412373e+02
9.9983117149e+02
9.9958972250e+02
9.9905637959e+02
9.9794976450e+02
9.9579866666e+02
9.9189007298e+02
9.8526176345e+02
9.7477627441e+02
9.5928988115e+02
9.3788440958e+02
9.1008721289e+02
8.7599890473e+02
8.3628880325e+02
7.9207785599e+02
7.4476899196e+02
6.9588719459e+02
6.4696569336e+02
5.9948238358e+02
5.5482480196e+02
5.1423896005e+02
4.7869468380e+02
4.4859278914e+02
4.2336723463e+02
4.0145528150e+02
3.8074749796e+02
3.5994069892e+02
3.3924153770e+02
3.1998533371e+02
3.0337980994e+02
2.8888697969e+02
2.7311871410e+02
2.5125828259e+02
2.2148969688e+02
1.8819273116e+02
1.5953752507e+02
1.4077587184e+02
1.3121402385e+02
1.2720811113e+02
1.2573411435e+02
1.2523297248e+02
1.2507116534e+02
1.2502098005e+02
1.2500597190e+02
1.2500164094e+02
1.2500043514e+02
1.2500011134e+02
1.2500002749e+02
1.2500000655e+02
1.2500000151e+02
1.2500000034e+02
1.2500000008e+02
1.2500000002e+02
1.2500000001e+02
1.2500000001e+02
1.2500000000e+02
1.2500000000e+02
1.2500000000e+02
1.2500000000e+02
1.2500000000e+02
1.2500000000e+02
1.2500000000e+02
1.2500000000e+02
1.2500000000e+02
1.2500000000e+02
1.2500000000e+02
1.2500000000e+02
1.2500000000e+02
1.2500000000e+02
1.2500000000e+02
1.2500000000e+02
9.9999999996e+02
9.9999999996e+02
9.9999999996e+02
9.9999999996e+02
9.9999999996e+02
9.9999999996e+02
9.9999999996e+02
9.9999999996e+02
9.9999999996e+02
9.9999999996e+02
9.9999999996e+02
9.9999999996e+02
9.9999999996e+02
9.9999999996e+02
9.9999999996e+02
9.9999999996e+02
9.9999999995e+02
9.9999999993e+02
9.9999999986e+02
9.9999999954e+02
9.9999999829e+02
9.9999999355e+02
9.9999997629e+02
9.9999991597e+02
9.9999971429e+02
9.9999906958e+02
9.9999710261e+02
9.9999138498e+02
9.9997558030e+02
9.9993412373e+02
9.9983117149e+02
9.9958972250e+02
9.9905637959e+02
9.9794976450e+02
9.9579866666e+02
9.9189007298e+02
9.8526176345e+02
9.7477627441e+02
9.5928988115e+02
9.3788440958e+02
9.1008721289e+02
8.7599890473e+02
8.3628880325e+02
7.9207785599e+02
7.4476899196e+02
6.9588719459e+02
6.4696569336e+02
5.9948238358e+02
5.5482480196e+02
5.1423896005e+02
4.7869468380e+02
4.4859278914e+02
4.2336723463e+02
4.0145528150e+02
3.8074749796e+02
3.5994069892e+02
3.3924153770e+02
3.1998533371e+02
3.0337980994e+02
2.8888697969e+02
2.7311871410e+02
2.5125828259e+02
2.2148969688e+02
1.8819273116e+02
1.5953752507e+02
1.4077587184e+02
1.3121402385e+02
1.2720811113e+02
1.2573411435e+02
1.2523297248e+02
1.2507116534e+02
1.2502098005e+02
1.2500597190e+02
1.2500164094e+02
1.2500043514e+02
1.2500011134e+02
1.2500002749e+02
1.2500000655e+02
1.2500000151e+02
1.2500000034e+02
1.2500000008e+02
1.2500000002e+02
1.2500000001e+02
1.2500000001e+02
1.2500000000e+02
1.2500000000e+02
1.2500000000e+02
1.2500000000e+02
1.2500000000e+02
1.2500000000e+02
1.2500000000e+02
1.2500000000e+02
1.2500000000e+02
1.2500000000e+02
1.2500000000e+02
1.2500000000e+02
1.2500000000e+02
1.2500000000e+02
1.2500000000e+02
1.2500000000e+02
9.9999999996e+02
9.9999999996e+02
9.9999999996e+02
9.9999999996e+02
9.9999999996e+02
9.9999999996e+02
9.9999999996e+02
9.9999999996e+02
9.9999999996e+02
9.9999999996e+02
9.9999999996e+02
9.9999999996e+02
9.9999999996e+02
9.9999999996e+02
9.9999999996e+02
9.9999999996e+02
9.9999999995e+02
9.9999999993e+02
9.9999999986e+02
9.9999999954e+02
9.9999999829e+02
9.9999999355e+02
9.9999997629e+02
9.9999991597e+02
9.9999971429e+02
9.9999906958e+02
9.9999710261e+02
9.9999138498e+02
9.9997558030e+02
9.9993412373e+02
9.9983117149e+02
9.9958972250e+02
9.9905637959e+02
9.9794976450e+02
9.9579866666e+02
9.9189007298e+02
9.8526176345e+02
9.7477627441e+02
9.5928988115e+02
9.3788440958e+02
9.1008721289e+02
8.7599890473e+02
8.3628880325e+02
7.9207785599e+02
7.4476899196e+02
6.9588719459e+02
6.4696569336e+02
5.9948238358e+02
5.5482480196e+02
5.1423896005e+02
4.7869468380e+02
4.4859278914e+02
4.2336723463e+02
4.0145528150e+02
3.8074749796e+02
3.5994069892e+02
3.3924153770e+02
3.1998533371e+02
3.0337980994e+02
2.8888697969e+02
2.7311871410e+02
2.5125828259e+02
2.2148969688e+02
1.8819273116e+02
1.5953752507e+02
1.4077587184e+02
1.3121402385e+02
1.2720811113e+02
1.2573411435e+02
1.2523297248e+02
1.2507116534e+02
1.2502098005e+02
1.2500597190e+02
1.2500164094e+02
1.2500043514e+02
1.2500011134e+02
1.2500002749e+02
1.2500000655e+02
1.2500000151e+02
1.2500000034e+02
1.2500000008e+02
1.2500000002e+02
1.2500000001e+02
1.2500000001e+02
1.2500000000e+02
1.2500000000e+02
1.2500000000e+02
1.2500000000e+02
1.2500000000e+02
1.2500000000e+02
1.2500000000e+02
1.2500000000e+02
1.2500000000e+02
1.2500000000e+02
1.2500000000e+02
1.2500000000e+02
1.2500000000e+02
1.2500000000e+02
1.2500000000e+02
1.2500000000e+02
9.9999999996e+02
9.9999999996e+02
9.9999999996e+02
9.9999999996e+02
9.9999999996e+02
9.9999999996e+02
9.9999999996e+02
9.9999999996e+02
9.9999999996e+02
9.9999999996e+02
9.9999999996e+02
9.9999999996e+02
9.9999999996e+02
9.9999999996e+02
9.9999999996e+02
9.9999999996e+02
9.9999999995e+02
9.9999999993e+02
9.9999999986e+02
9.9999999954e+02
9.9999999829e+02
9.9999999355e+02
9.9999997629e+02
9.9999991597e+02
9.9999971429e+02
9.9999906958e+02
9.9999710261e+02
9.9999138498e+02
9.9997558030e+02
9.9993412373e+02
9.9983117149e+02
9.9958972250e+02
9.9905637959e+02
9.9794976450e+02
9.9579866666e+02
9.9189007298e+02
9.8526176345e+02
9.7477627441e+02
9.5928988115e+02
9.3788440958e+02
9.1008721289e+02
8.7599890473e+02
8.3628880325e+02
7.9207785599e+02
7.4476899196e+02
6.9588719459e+02
6.4696569336e+02
5.9948238358e+02
5.5482480196e+02
5.1423896005e+02
4.7869468380e+02
4.4859278914e+02
4.2336723463e+02
4.0145528150e+02
3.8074749796e+02
3.5994069892e+02
3.3924153770e+02
3.1998533371e+02
3.0337980994e+02
2.8888697969e+02
2.7311871410e+02
2.5125828259e+02
2.2148969688e+02
1.8819273116e+02
1.5953752507e+02
1.4077587184e+02
1.3121402385e+02
1.2720811113e+02
1.2573411435e+02
1.2523297248e+02
1.2507116534e+02
1.2502098005e+02
1.2500597190e+02
1.2500164094e+02
1.2500043514e+02
1.2500011134e+02
1.2500002749e+02
1.2500000655e+02
1.2500000151e+02
1.2500000034e+02
1.2500000008e+02
1.2500000002e+02
1.2500000001e+02
1.2500000001e+02
1.2500000000e+02
1.2500000000e+02
1.2500000000e+02
1.2500000000e+02
1.2500000000e+02
1.2500000000e+02
1.2500000000e+02
1.2500000000e+02
1.2500000000e+02
1.2500000000e+02
1.2500000000e+02
1.2500000000e+02
1.2500000000e+02
1.2500000000e+02
1.2500000000e+02
1.2500000000e+02
9.9999999996e+02
9.9999999996e+02
9.9999999996e+02
9.9999999996e+02
9.9999999996e+02
9.9999999996e+02
9.9999999996e+02
9.9999999996e+02
9.9999999996e+02
9.9999999996e+02
9.9999999996e+02
9.9999999996e+02
9.9999999996e+02
9.9999999996e+02
9.9999999996e+02
9.9999999996e+02
9.9999999995e+02
9.9999999993e+02
9.9999999986e+02
9.9999999954e+02
9.9999999829e+02
9.9999999355e+02
9.9999997629e+02
9.9999991597e+02
9.9999971429e+02
9.9999906958e+02
9.9999710261e+02
9.9999138498e+02
9.9997558030e+02
9.9993412373e+02
9.9983117149e+02
9.9958972250e+02
9.9905637959e+02
9.9794976450e+02
9.9579866666e+02
9.9189007298e+02
9.8526176345e+02
9.7477627441e+02
9.5928988115e+02
9.3788440958e+02
9.1008721289e+02
8.7599890473e+02
8.3628880325e+02
7.9207785599e+02
7.4476899196e+02
6.9588719459e+02
6.4696569336e+02
5.9948238358e+02
5.5482480196e+02
5.1423896005e+02
4.7869468380e+02
4.4859278914e+02
4.2336723463e+02
4.0145528150e+02
3.8074749796e+02
3.5994069892e+02
3.3924153770e+02
3.1998533371e+02
3.0337980994e+02
2.8888697969e+02
2.7311871410e+02
2.5125828259e+02
2.2148969688e+02
1.8819273116e+02
1.5953752507e+02
1.4077587184e+02
1.3121402385e+02
1.2720811113e+02
1.2573411435e+02
1.2523297248e+02
1.2507116534e+02
1.2502098005e+02
1.2500597190e+02
1.2500164094e+02
1.2500043514e+02
1.2500011134e+02
1.2500002749e+02
1.2500000655e+02
1.2500000151e+02
1.2500000034e+02
1.2500000008e+02
1.2500000002e+02
1.2500000001e+02
1.2500000001e+02
1.2500000000e+02
1.2500000000e+02
1.2500000000e+02
1.2500000000e+02
1.2500000000e+02
1.2500000000e+02
1.2500000000e+02
1.2500000000e+02
1.2500000000e+02
1.2500000000e+02
1.2500000000e+02
1.2500000000e+02
1.2500000000e+02
1.2500000000e+02
1.2500000000e+02
1.2500000000e+02

SCALARS molarDensity float
LOOKUP_TABLE default
1.2977624132e+05
1.2977624132e+05
1.2977624132e+05
1.2977624132e+05
1.2977624132e+05
1.2977624132e+05
1.2977624132e+05
1.2977624132e+05
1.2977624132e+05
1.2977624132e+05
1.2977624132e+05
1.2977624132e+05
1.2977624132e+05
1.2977624132e+05
1.2977624132e+05
1.2977624132e+05
1.2977624132e+05
1.2977624132e+05
1.2977624131e+05
1.2977624127e+05
1.2977624111e+05
1.2977624049e+05
1.2977623825e+05
1.2977623042e+05
1.2977620425e+05
1.2977612058e+05
1.2977586531e+05
1.2977512330e+05
1.2977307223e+05
1.2976769215e+05
1.2975433140e+05
1.2972299705e+05
1.2965378182e+05
1.2951016947e+05
1.2923100808e+05
1.2872376548e+05
1.2786356838e+05
1.2650280103e+05
1.2449303512e+05
1.2171511347e+05
1.1810769777e+05
1.1368384526e+05
1.0853041755e+05
1.0279288699e+05
9.6653320433e+04
9.0309624502e+04
8.3960775951e+04
7.7798570482e+04
7.2003077394e+04
6.6735999379e+04
6.2123196807e+04
5.8216686061e+04
5.4943008412e+04
5.2099357494e+04
4.9411979180e+04
4.6711751007e+04
4.4025491664e+04
4.1526493888e+04
3.9371491428e+04
3.7490666392e+04
3.5444320152e+04
3.2607355517e+04
2.8744100354e+04
2.4422945295e+04
2.0704180355e+04
1.8269363517e+04
1.7028462825e+04
1.6508590528e+04
1.6317300767e+04
1.6252264459e+04
1.6231265736e+04
1.6224752878e+04
1.6222805176e+04
1.6222243121e+04
1.6222086636e+04
1.6222044615e+04
1.6222033733e+04
1.6222031016e+04
1.6222030362e+04
1.6222030210e+04
1.6222030176e+04
1.6222030168e+04
1.6222030167e+04
1.6222030167e+04
1.6222030167e+04
1.6222030166e+04
1.6222030166e+04
1.6222030166e+04
1.6222030166e+04
1.6222030166e+04
1.6222030166e+04
1.6222030166e+04
1.6222030166e+04
1.6222030166e+04
1.6222030166e+04
1.6222030166e+04
1.6222030166e+04
1.6222030166e+04
1.6222030166e+04
1.6222030166e+04
1.2977624132e+05
1.2977624132e+05
1.2977624132e+05
1.2977624132e+05
1.2977624132e+05
1.2977624132e+05
1.2977624132e+05
1.2977624132e+05
1.2977624132e+05
1.2977624132e+05
1.2977624132e+05
1.2977624132e+05
1.2977624132e+05
1.2977624132e+05
1.2977624132e+05
1.2977624132e+05
1.2977624132e+05
1.2977624132e+05
1.2977624131e+05
1.2977624127e+05
1.2977624111e+05
1.2977624049e+05
1.2977623825e+05
1.2977623042e+05
1.2977620425e+05
1.2977612058e+05
1.2977586531e+05
1.2977512330e+05
1.2977307223e+05
1.2976769215e+05
1.2975433140e+05
1.2972299705e+05
1.2965378182e+05
1.2951016947e+05
1.2923100808e+05
1.2872376548e+05
1.2786356838e+05
1.2650280103e+05
1.2449303512e+05
1.2171511347e+05
1.1810769777e+05
1.1368384526e+05
1.0853041755e+05
1.0279288699e+05
9.6653320433e+04
9.0309624502e+04
8.3960775951e+04
7.7798570482e+04
7.2003077394e+04
6.6735999379e+04
6.2123196807e+04
5.8216686061e+04
5.4943008412e+04
5.2099357494e+04
4.9411979180e+04
4.6711751007e+04
4.4025491664e+04
4.1526493888e+04
3.9371491428e+04
3.7490666392e+04
3.5444320152e+04
3.2607355517e+04
2.8744100354e+04
2.4422945295e+04
2.0704180355e+04
1.8269363517e+04
1.7028462825e+04
1.6508590528e+04
1.6317300767e+04