# vtk DataFile Version 2.0
Blank
ASCII
DATASET STRUCTURED_GRID
DIMENSIONS 101 11 2
POINTS 2222 float
0.0000000000e+00 0.0000000000e+00 0.0000000000e+00
1.0000000000e-02 0.0000000000e+00 0.0000000000e+00
2.0000000000e-02 0.0000000000e+00 0.0000000000e+00
3.0000000000e-02 0.0000000000e+00 0.0000000000e+00
4.0000000000e-02 0.0000000000e+00 0.0000000000e+00
5.0000000000e-02 0.0000000000e+00 0.0000000000e+00
6.0000000000e-02 0.0000000000e+00 0.0000000000e+00
7.0000000000e-02 0.0000000000e+00 0.0000000000e+00
8.0000000000e-02 0.0000000000e+00 0.0000000000e+00
9.0000000000e-02 0.0000000000e+00 0.0000000000e+00
1.0000000000e-01 0.0000000000e+00 0.0000000000e+00
1.1000000000e-01 0.0000000000e+00 0.0000000000e+00
1.2000000000e-01 0.0000000000e+00 0.0000000000e+00
1.3000000000e-01 0.0000000000e+00 0.0000000000e+00
1.4000000000e-01 0.0000000000e+00 0.0000000000e+00
1.5000000000e-01 0.0000000000e+00 0.0000000000e+00
1.6000000000e-01 0.0000000000e+00 0.0000000000e+00
1.7000000000e-01 0.0000000000e+00 0.0000000000e+00
1.8000000000e-01 0.0000000000e+00 0.0000000000e+00
1.9000000000e-01 0.0000000000e+00 0.0000000000e+00
2.0000000000e-01 0.0000000000e+00 0.0000000000e+00
2.1000000000e-01 0.0000000000e+00 0.0000000000e+00
2.2000000000e-01 0.0000000000e+00 0.0000000000e+00
2.3000000000e-01 0.0000000000e+00 0.0000000000e+00
2.4000000000e-01 0.0000000000e+00 0.0000000000e+00
2.5000000000e-01 0.0000000000e+00 0.0000000000e+00
2.6000000000e-01 0.0000000000e+00 0.0000000000e+00
2.7000000000e-01 0.0000000000e+00 0.0000000000e+00
2.8000000000e-01 0.0000000000e+00 0.0000000000e+00
2.9000000000e-01 0.0000000000e+00 0.0000000000e+00
3.0000000000e-01 0.0000000000e+00 0.0000000000e+00
3.1000000000e-01 0.0000000000e+00 0.0000000000e+00
3.2000000000e-01 0.0000000000e+00 0.0000000000e+00
3.3000000000e-01 0.0000000000e+00 0.0000000000e+00
3.4000000000e-01 0.0000000000e+00 0.0000000000e+00
3.5000000000e-01 0.0000000000e+00 0.0000000000e+00
3.6000000000e-01 0.0000000000e+00 0.0000000000e+00
3.7000000000e-01 0.0000000000e+00 0.0000000000e+00
3.8000000000e-01 0.0000000000e+00 0.0000000000e+00
3.9000000000e-01 0.0000000000e+00 0.0000000000e+00
4.0000000000e-01 0.0000000000e+00 0.0000000000e+00
4.1000000000e-01 0.0000000000e+00 0.0000000000e+00
4.2000000000e-01 0.0000000000e+00 0.0000000000e+00
4.3000000000e-01 0.0000000000e+00 0.0000000000e+00
4.4000000000e-01 0.0000000000e+00 0.0000000000e+00
4.5000000000e-01 0.0000000000e+00 0.0000000000e+00
4.6000000000e-01 0.0000000000e+00 0.0000000000e+00
4.7000000000e-01 0.0000000000e+00 0.0000000000e+00
4.8000000000e-01 0.0000000000e+00 0.0000000000e+00
4.9000000000e-01 0.0000000000e+00 0.0000000000e+00
5.0000000000e-01 0.0000000000e+00 0.0000000000e+00
5.1000000000e-01 0.0000000000e+00 0.0000000000e+00
5.2000000000e-01 0.0000000000e+00 0.0000000000e+00
5.3000000000e-01 0.0000000000e+00 0.0000000000e+00
5.4000000000e-01 0.0000000000e+00 0.0000000000e+00
5.5000000000e-01 0.0000000000e+00 0.0000000000e+00
5.6000000000e-01 0.0000000000e+00 0.0000000000e+00
5.7000000000e-01 0.0000000000e+00 0.0000000000e+00
5.8000000000e-01 0.0000000000e+00 0.0000000000e+00
5.9000000000e-01 0.0000000000e+00 0.0000000000e+00
6.0000000000e-01 0.0000000000e+00 0.0000000000e+00
6.1000000000e-01 0.0000000000e+00 0.0000000000e+00
6.2000000000e-01 0.0000000000e+00 0.0000000000e+00
6.3000000000e-01 0.0000000000e+00 0.0000000000e+00
6.4000000000e-01 0.0000000000e+00 0.0000000000e+00
6.5000000000e-01 0.0000000000e+00 0.0000000000e+00
6.6000000000e-01 0.0000000000e+00 0.0000000000e+00
6.7000000000e-01 0.0000000000e+00 0.0000000000e+00
6.8000000000e-01 0.0000000000e+00 0.0000000000e+00
6.9000000000e-01 0.0000000000e+00 0.0000000000e+00
7.0000000000e-01 0.0000000000e+00 0.0000000000e+00
7.1000000000e-01 0.0000000000e+00 0.0000000000e+00
7.2000000000e-01 0.0000000000e+00 0.0000000000e+00
7.3000000000e-01 0.0000000000e+00 0.0000000000e+00
7.4000000000e-01 0.0000000000e+00 0.0000000000e+00
7.5000000000e-01 0.0000000000e+00 0.0000000000e+00
7.6000000000e-01 0.0000000000e+00 0.0000000000e+00
7.7000000000e-01 0.0000000000e+00 0.0000000000e+00
7.8000000000e-01 0.0000000000e+00 0.0000000000e+00
7.9000000000e-01 0.0000000000e+00 0.0000000000e+00
8.0000000000e-01 0.0000000000e+00 0.0000000000e+00
8.1000000000e-01 0.0000000000e+00 0.0000000000e+00
8.2000000000e-01 0.0000000000e+00 0.0000000000e+00
8.3000000000e-01 0.0000000000e+00 0.0000000000e+00
8.4000000000e-01 0.0000000000e+00 0.0000000000e+00
8.5000000000e-01 0.0000000000e+00 0.0000000000e+00
8.6000000000e-01 0.0000000000e+00 0.0000000000e+00
8.7000000000e-01 0.0000000000e+00 0.0000000000e+00
8.8000000000e-01 0.0000000000e+00 0.0000000000e+00
8.9000000000e-01 0.0000000000e+00 0.0000000000e+00
9.0000000000e-01 0.0000000000e+00 0.0000000000e+00
9.1000000000e-01 0.0000000000e+00 0.0000000000e+00
9.2000000000e-01 0.0000000000e+00 0.0000000000e+00
9.3000000000e-01 0.0000000000e+00 0.0000000000e+00
9.4000000000e-01 0.0000000000e+00 0.0000000000e+00
9.5000000000e-01 0.0000000000e+00 0.0000000000e+00
9.6000000000e-01 0.0000000000e+00 0.0000000000e+00
9.7000000000e-01 0.0000000000e+00 0.0000000000e+00
9.8000000000e-01 0.0000000000e+00 0.0000000000e+00
9.9000000000e-01 0.0000000000e+00 0.0000000000e+00
1.0000000000e+00 0.0000000000e+00 0.0000000000e+00
0.0000000000e+00 1.0000000000e-03 0.0000000000e+00
1.0000000000e-02 1.0000000000e-03 0.0000000000e+00
2.0000000000e-02 1.0000000000e-03 0.0000000000e+00
3.0000000000e-02 1.0000000000e-03 0.0000000000e+00
4.0000000000e-02 1.0000000000e-03 0.0000000000e+00
5.0000000000e-02 1.0000000000e-03 0.0000000000e+00
6.0000000000e-02 1.0000000000e-03 0.0000000000e+00
7.0000000000e-02 1.0000000000e-03 0.0000000000e+00
8.0000000000e-02 1.0000000000e-03 0.0000000000e+00
9.0000000000e-02 1.0000000000e-03 0.0000000000e+00
1.0000000000e-01 1.0000000000e-03 0.0000000000e+00
1.1000000000e-01 1.0000000000e-03 0.0000000000e+00
1.2000000000e-01 1.0000000000e-03 0.0000000000e+00
1.3000000000e-01 1.0000000000e-03 0.0000000000e+00
1.4000000000e-01 1.0000000000e-03 0.0000000000e+00
1.5000000000e-01 1.0000000000e-03 0.0000000000e+00
1.6000000000e-01 1.0000000000e-03 0.0000000000e+00
1.7000000000e-01 1.0000000000e-03 0.0000000000e+00
1.8000000000e-01 1.0000000000e-03 0.0000000000e+00
1.9000000000e-01 1.0000000000e-03 0.0000000000e+00
2.0000000000e-01 1.0000000000e-03 0.0000000000e+00
2.1000000000e-01 1.0000000000e-03 0.0000000000e+00
2.2000000000e-01 1.0000000000e-03 0.0000000000e+00
2.3000000000e-01 1.0000000000e-03 0.0000000000e+00
2.4000000000e-01 1.0000000000e-03 0.0000000000e+00
2.5000000000e-01 1.0000000000e-03 0.0000000000e+00
2.6000000000e-01 1.0000000000e-03 0.0000000000e+00
2.7000000000e-01 1.0000000000e-03 0.0000000000e+00
2.8000000000e-01 1.0000000000e-03 0.0000000000e+00
2.9000000000e-01 1.0000000000e-03 0.0000000000e+00
3.0000000000e-01 1.0000000000e-03 0.0000000000e+00
3.1000000000e-01 1.0000000000e-03 0.0000000000e+00
3.2000000000e-01 1.0000000000e-03 0.0000000000e+00
3.3000000000e-01 1.0000000000e-03 0.0000000000e+00
3.4000000000e-01 1.0000000000e-03 0.0000000000e+00
3.5000000000e-01 1.0000000000e-03 0.0000000000e+00
3.6000000000e-01 1.0000000000e-03 0.0000000000e+00
3.7000000000e-01 1.0000000000e-03 0.0000000000e+00
3.8000000000e-01 1.0000000000e-03 0.0000000000e+00
3.9000000000e-01 1.0000000000e-03 0.0000000000e+00
4.0000000000e-01 1.0000000000e-03 0.0000000000e+00
4.1000000000e-01 1.0000000000e-03 0.0000000000e+00
4.2000000000e-01 1.0000000000e-03 0.0000000000e+00
4.3000000000e-01 1.0000000000e-03 0.0000000000e+00
4.4000000000e-01 1.0000000000e-03 0.0000000000e+00
4.5000000000e-01 1.0000000000e-03 0.0000000000e+00
4.6000000000e-01 1.0000000000e-03 0.0000000000e+00
4.7000000000e-01 1.0000000000e-03 0.0000000000e+00
4.8000000000e-01 1.0000000000e-03 0.0000000000e+00
4.9000000000e-01 1.0000000000e-03 0.0000000000e+00
5.0000000000e-01 1.0000000000e-03 0.0000000000e+00
5.1000000000e-01 1.0000000000e-03 0.0000000000e+00
5.2000000000e-01 1.0000000000e-03 0.0000000000e+00
5.3000000000e-01 1.0000000000e-03 0.0000000000e+00
5.4000000000e-01 1.0000000000e-03 0.0000000000e+00
5.5000000000e-01 1.0000000000e-03 0.0000000000e+00
5.6000000000e-01 1.0000000000e-03 0.0000000000e+00
5.7000000000e-01 1.0000000000e-03 0.0000000000e+00
5.8000000000e-01 1.0000000000e-03 0.0000000000e+00
5.9000000000e-01 1.0000000000e-03 0.0000000000e+00
6.0000000000e-01 1.0000000000e-03 0.0000000000e+00
6.1000000000e-01 1.0000000000e-03 0.0000000000e+00
6.2000000000e-01 1.0000000000e-03 0.0000000000e+00
6.3000000000e-01 1.0000000000e-03 0.0000000000e+00
6.4000000000e-01 1.0000000000e-03 0.0000000000e+00
6.5000000000e-01 1.0000000000e-03 0.0000000000e+00
6.6000000000e-01 1.0000000000e-03 0.0000000000e+00
6.7000000000e-01 1.0000000000e-03 0.0000000000e+00
6.8000000000e-01 1.0000000000e-03 0.0000000000e+00
6.9000000000e-01 1.0000000000e-03 0.0000000000e+00
7.0000000000e-01 1.0000000000e-03 0.0000000000e+00
7.1000000000e-01 1.0000000000e-03 0.0000000000e+00
7.2000000000e-01 1.0000000000e-03 0.0000000000e+00
7.3000000000e-01 1.0000000000e-03 0.0000000000e+00
7.4000000000e-01 1.0000000000e-03 0.0000000000e+00
7.5000000000e-01 1.0000000000e-03 0.0000000000e+00
7.6000000000e-01 1.0000000000e-03 0.0000000000e+00
7.7000000000e-01 1.0000000000e-03 0.0000000000e+00
7.8000000000e-01 1.0000000000e-03 0.0000000000e+00
7.9000000000e-01 1.0000000000e-03 0.0000000000e+00
8.0000000000e-01 1.0000000000e-03 0.0000000000e+00
8.1000000000e-01 1.0000000000e-03 0.0000000000e+00
8.2000000000e-01 1.0000000000e-03 0.0000000000e+00
8.3000000000e-01 1.0000000000e-03 0.0000000000e+00
8.4000000000e-01 1.0000000000e-03 0.0000000000e+00
8.5000000000e-01 1.0000000000e-03 0.0000000000e+00
8.6000000000e-01 1.0000000000e-03 0.0000000000e+00
8.7000000000e-01 1.0000000000e-03 0.0000000000e+00
8.8000000000e-01 1.0000000000e-03 0.0000000000e+00
8.9000000000e-01 1.0000000000e-03 0.0000000000e+00
9.0000000000e-01 1.0000000000e-03 0.0000000000e+00
9.1000000000e-01 1.0000000000e-03 0.0000000000e+00
9.2000000000e-01 1.0000000000e-03 0.0000000000e+00
[...]
CELL_DATA 1000

SCALARS massDensity float
LOOKUP_TABLE default
9.9999999996e+02
9.9999999996e+02
9.9999999996e+02
9.9999999996e+02
9.9999999996e+02
9.9999999996e+02
9.9999999996e+02
9.9999999996e+02
9.9999999996e+02
9.9999999996e+02
9.9999999996e+02
9.9999999996e+02
9.9999999996e+02
9.9999999996e+02
9.9999999996e+02
9.9999999996e+02
9.9999999996e+02
9.9999999996e+02
9.9999999996e+02
9.9999999996e+02
9.9999999996e+02
9.9999999996e+02
9.9999999996e+02
9.9999999996e+02
9.9999999996e+02
9.9999999996e+02
9.9999999996e+02
9.9999999996e+02
9.9999999996e+02
9.9999999996e+02
9.9999999996e+02
9.9999999994e+02
9.9999999984e+02
9.9999999897e+02
9.9999999263e+02
9.9999994957e+02
9.9999968182e+02
9.9999816204e+02
9.9999032591e+02
9.9995383722e+02
9.9980143707e+02
9.9923499511e+02
9.9737785059e+02
9.9205584656e+02
9.7883851890e+02
9.5057879882e+02
8.9876506776e+02
8.1754744491e+02
7.0823357135e+02
5.8632799679e+02
4.7552746209e+02
3.9139842156e+02
3.2191526126e+02
2.5685865388e+02
1.9962606565e+02
1.5904543413e+02
1.3725624407e+02
1.2855962487e+02
1.2587513384e+02
1.2518950839e+02
1.2503692989e+02
1.2500654241e+02
1.2500105943e+02
1.2500015739e+02
1.2500002152e+02
1.2500000272e+02
1.2500000032e+02
1.2500000004e+02
1.2500000001e+02
1.2500000001e+02
1.2500000000e+02
1.2500000000e+02
1.2500000000e+02
1.2500000000e+02
1.2500000000e+02
1.2500000000e+02
1.2500000000e+02
1.2500000000e+02
1.2500000000e+02
1.2500000000e+02
1.2500000000e+02
1.2500000000e+02
1.2500000000e+02
1.2500000000e+02
1.2500000000e+02
1.2500000000e+02
1.2500000000e+02
1.2500000000e+02
1.2500000000e+02
1.2500000000e+02
1.2500000000e+02
1.2500000000e+02
1.2500000000e+02
1.2500000000e+02
1.2500000000e+02
1.2500000000e+02
1.2500000000e+02
1.2500000000e+02
1.2500000000e+02
1.2500000000e+02
9.9999999996e+02
9.9999999996e+02
9.9999999996e+02
9.9999999996e+02
9.9999999996e+02
9.9999999996e+02
9.9999999996e+02
9.9999999996e+02
9.9999999996e+02
9.9999999996e+02
9.9999999996e+02
9.9999999996e+02
9.9999999996e+02
9.9999999996e+02
9.9999999996e+02
9.9999999996e+02
9.9999999996e+02
9.9999999996e+02
9.9999999996e+02
9.9999999996e+02
9.9999999996e+02
9.9999999996e+02
9.9999999996e+02
9.9999999996e+02
9.9999999996e+02
9.9999999996e+02
9.9999999996e+02
9.9999999996e+02
9.9999999996e+02
9.9999999996e+02
9.9999999996e+02
9.9999999994e+02
9.9999999984e+02
9.9999999897e+02
9.9999999263e+02
9.9999994957e+02
9.9999968182e+02
9.9999816204e+02
9.9999032591e+02
9.9995383722e+02
9.9980143707e+02
9.9923499511e+02
9.9737785059e+02
9.9205584656e+02
9.7883851890e+02
9.5057879882e+02
8.9876506776e+02
8.1754744491e+02
7.0823357135e+02
5.8632799679e+02
4.7552746209e+02
3.9139842156e+02
3.2191526126e+02
2.5685865388e+02
1.9962606565e+02
1.5904543413e+02
1.3725624407e+02
1.2855962487e+02
1.2587513384e+02
1.2518950839e+02
1.2503692989e+02
1.2500654241e+02
1.2500105943e+02
1.2500015739e+02
1.2500002152e+02
1.2500000272e+02
1.2500000032e+02
1.2500000004e+02
1.2500000001e+02
1.2500000001e+02
1.2500000000e+02
1.2500000000e+02
1.2500000000e+02
1.2500000000e+02
1.2500000000e+02
1.2500000000e+02
1.2500000000e+02
1.2500000000e+02
1.2500000000e+02
1.2500000000e+02
1.2500000000e+02
1.2500000000e+02
1.2500000000e+02
1.2500000000e+02
1.2500000000e+02
1.2500000000e+02
1.2500000000e+02
1.2500000000e+02
1.2500000000e+02
1.2500000000e+02
1.2500000000e+02
1.2500000000e+02
1.2500000000e+02
1.2500000000e+02
1.2500000000e+02
1.2500000000e+02
1.2500000000e+02
1.2500000000e+02
1.2500000000e+02
1.2500000000e+02
9.9999999996e+02
9.9999999996e+02
9.9999999996e+02
9.9999999996e+02
9.9999999996e+02
9.9999999996e+02
9.9999999996e+02
9.9999999996e+02
9.9999999996e+02
9.9999999996e+02
9.9999999996e+02
9.9999999996e+02
9.9999999996e+02
9.9999999996e+02
9.9999999996e+02
9.9999999996e+02
9.9999999996e+02
9.9999999996e+02
9.9999999996e+02
9.9999999996e+02
9.9999999996e+02
9.9999999996e+02
9.9999999996e+02
9.9999999996e+02
9.9999999996e+02
9.9999999996e+02
9.9999999996e+02
9.9999999996e+02
9.9999999996e+02
9.9999999996e+02
9.9999999996e+02
9.9999999994e+02
9.9999999984e+02
9.9999999897e+02
9.9999999263e+02
9.9999994957e+02
9.9999968182e+02
9.9999816204e+02
9.9999032591e+02
9.9995383722e+02
9.9980143707e+02
9.9923499511e+02
9.9737785059e+02
9.9205584656e+02
9.7883851890e+02
9.5057879882e+02
8.9876506776e+02
8.1754744491e+02
7.0823357135e+02
5.8632799679e+02
4.7552746209e+02
3.9139842156e+02
3.2191526126e+02
2.5685865388e+02
1.9962606565e+02
1.5904543413e+02
1.3725624407e+02
1.2855962487e+02
1.2587513384e+02
1.2518950839e+02
1.2503692989e+02
1.2500654241e+02
1.2500105943e+02
1.2500015739e+02
1.2500002152e+02
1.2500000272e+02
1.2500000032e+02
1.2500000004e+02
1.2500000001e+02
1.2500000001e+02
1.2500000000e+02
1.2500000000e+02
1.2500000000e+02
1.2500000000e+02
1.2500000000e+02
1.2500000000e+02
1.2500000000e+02
1.2500000000e+02
1.2500000000e+02
1.2500000000e+02
1.2500000000e+02
1.2500000000e+02
1.2500000000e+02
1.2500000000e+02
1.2500000000e+02
1.2500000000e+02
1.2500000000e+02
1.2500000000e+02
1.2500000000e+02
1.2500000000e+02
1.2500000000e+02
1.2500000000e+02
1.2500000000e+02
1.2500000000e+02
1.2500000000e+02
1.2500000000e+02
1.2500000000e+02
1.2500000000e+02
1.2500000000e+02
1.2500000000e+02
9.9999999996e+02
9.9999999996e+02
9.9999999996e+02
9.9999999996e+02
9.9999999996e+02
9.9999999996e+02
9.9999999996e+02
9.9999999996e+02
9.9999999996e+02
9.9999999996e+02
9.9999999996e+02
9.9999999996e+02
9.9999999996e+02
9.9999999996e+02
9.9999999996e+02
9.9999999996e+02
9.9999999996e+02
9.9999999996e+02
9.9999999996e+02
9.9999999996e+02
9.9999999996e+02
9.9999999996e+02
9.9999999996e+02
9.9999999996e+02
9.9999999996e+02
9.9999999996e+02
9.9999999996e+02
9.9999999996e+02
9.9999999996e+02
9.9999999996e+02
9.9999999996e+02
9.9999999994e+02
9.9999999984e+02
9.9999999897e+02
9.9999999263e+02
9.9999994957e+02
9.9999968182e+02
9.9999816204e+02
9.9999032591e+02
9.9995383722e+02
9.9980143707e+02
9.9923499511e+02
9.9737785059e+02
9.9205584656e+02
9.7883851890e+02
9.5057879882e+02
8.9876506776e+02
8.1754744491e+02
7.0823357135e+02
5.8632799679e+02
4.7552746209e+02
3.9139842156e+02
3.2191526126e+02
2.5685865388e+02
1.9962606565e+02
1.5904543413e+02
1.3725624407e+02
1.2855962487e+02
1.2587513384e+02
1.2518950839e+02
1.2503692989e+02
1.2500654241e+02
1.2500105943e+02
1.2500015739e+02
1.2500002152e+02
1.2500000272e+02
1.2500000032e+02
1.2500000004e+02
1.2500000001e+02
1.2500000001e+02
1.2500000000e+02
1.2500000000e+02
1.2500000000e+02
1.2500000000e+02
1.2500000000e+02
1.2500000000e+02
1.2500000000e+02
1.2500000000e+02
1.2500000000e+02
1.2500000000e+02
1.2500000000e+02
1.2500000000e+02
1.2500000000e+02
1.2500000000e+02
1.2500000000e+02
1.2500000000e+02
1.2500000000e+02
1.2500000000e+02
1.2500000000e+02
1.2500000000e+02
1.2500000000e+02
1.2500000000e+02
1.2500000000e+02
1.2500000000e+02
1.2500000000e+02
1.2500000000e+02
1.2500000000e+02
1.2500000000e+02
1.2500000000e+02
1.2500000000e+02
9.9999999996e+02
9.9999999996e+02
9.9999999996e+02
9.9999999996e+02
9.9999999996e+02
9.9999999996e+02
9.9999999996e+02
9.9999999996e+02
9.9999999996e+02
9.9999999996e+02
9.9999999996e+02
9.9999999996e+02
9.9999999996e+02
9.9999999996e+02
9.9999999996e+02
9.9999999996e+02
9.9999999996e+02
9.9999999996e+02
9.9999999996e+02
9.9999999996e+02
9.9999999996e+02
9.9999999996e+02
9.9999999996e+02
9.9999999996e+02
9.9999999996e+02
9.9999999996e+02
9.9999999996e+02
9.9999999996e+02
9.9999999996e+02
9.9999999996e+02
9.9999999996e+02
9.9999999994e+02
9.9999999984e+02
9.9999999897e+02
9.9999999263e+02
9.9999994957e+02
9.9999968182e+02
9.9999816204e+02
9.9999032591e+02
9.9995383722e+02
9.9980143707e+02
9.9923499511e+02
9.9737785059e+02
9.9205584656e+02
9.7883851890e+02
9.5057879882e+02
8.9876506776e+02
8.1754744491e+02
7.0823357135e+02
5.8632799679e+02
4.7552746209e+02
3.9139842156e+02
3.2191526126e+02
2.5685865388e+02
1.9962606565e+02
1.5904543413e+02
1.3725624407e+02
1.2855962487e+02
1.2587513384e+02
1.2518950839e+02
1.2503692989e+02
1.2500654241e+02
1.2500105943e+02
1.2500015739e+02
1.2500002152e+02
1.2500000272e+02
1.2500000032e+02
1.2500000004e+02
1.2500000001e+02
1.2500000001e+02
1.2500000000e+02
1.2500000000e+02
1.2500000000e+02
1.2500000000e+02
1.2500000000e+02
1.2500000000e+02
1.2500000000e+02
1.2500000000e+02
1.2500000000e+02
1.2500000000e+02
1.2500000000e+02
1.2500000000e+02
1.2500000000e+02
1.2500000000e+02
1.2500000000e+02
1.2500000000e+02
1.2500000000e+02
1.2500000000e+02
1.2500000000e+02
1.2500000000e+02
1.2500000000e+02
1.2500000000e+02
1.2500000000e+02
1.2500000000e+02
1.2500000000e+02
1.2500000000e+02
1.2500000000e+02
1.2500000000e+02
1.2500000000e+02
1.2500000000e+02
9.9999999996e+02
9.9999999996e+02
9.9999999996e+02
9.9999999996e+02
9.9999999996e+02
9.9999999996e+02
9.9999999996e+02
9.9999999996e+02
9.9999999996e+02
9.9999999996e+02
9.9999999996e+02
9.9999999996e+02
9.9999999996e+02
9.9999999996e+02
9.9999999996e+02
9.9999999996e+02
9.9999999996e+02
9.9999999996e+02
9.9999999996e+02
9.9999999996e+02
9.9999999996e+02
9.9999999996e+02
9.9999999996e+02
9.9999999996e+02
9.9999999996e+02
9.9999999996e+02
9.9999999996e+02
9.9999999996e+02
9.9999999996e+02
9.9999999996e+02
9.9999999996e+02
9.9999999994e+02
9.9999999984e+02
9.9999999897e+02
9.9999999263e+02
9.9999994957e+02
9.9999968182e+02
9.9999816204e+02
9.9999032591e+02
9.9995383722e+02
9.9980143707e+02
9.9923499511e+02
9.9737785059e+02
9.9205584656e+02
9.7883851890e+02
9.5057879882e+02
8.9876506776e+02
8.1754744491e+02
7.0823357135e+02
5.8632799679e+02
4.7552746209e+02
3.9139842156e+02
3.2191526126e+02
2.5685865388e+02
1.9962606565e+02
1.5904543413e+02
1.3725624407e+02
1.2855962487e+02
1.2587513384e+02
1.2518950839e+02
1.2503692989e+02
1.2500654241e+02
1.2500105943e+02
1.2500015739e+02
1.2500002152e+02
1.2500000272e+02
1.2500000032e+02
1.2500000004e+02
1.2500000001e+02
1.2500000001e+02
1.2500000000e+02
1.2500000000e+02
1.2500000000e+02
1.2500000000e+02
1.2500000000e+02
1.2500000000e+02
1.2500000000e+02
1.2500000000e+02
1.2500000000e+02
1.2500000000e+02
1.2500000000e+02
1.2500000000e+02
1.2500000000e+02
1.2500000000e+02
1.2500000000e+02
1.2500000000e+02
1.2500000000e+02
1.2500000000e+02
1.2500000000e+02
1.2500000000e+02
1.2500000000e+02
1.2500000000e+02
1.2500000000e+02
1.2500000000e+02
1.2500000000e+02
1.2500000000e+02
1.2500000000e+02
1.2500000000e+02
1.2500000000e+02
1.2500000000e+02
9.9999999996e+02
9.9999999996e+02
9.9999999996e+02
9.9999999996e+02
9.9999999996e+02
9.9999999996e+02
9.9999999996e+02
9.9999999996e+02
9.9999999996e+02
9.9999999996e+02
9.9999999996e+02
9.9999999996e+02
9.9999999996e+02
9.9999999996e+02
9.9999999996e+02
9.9999999996e+02
9.9999999996e+02
9.9999999996e+02
9.9999999996e+02
9.9999999996e+02
9.9999999996e+02
9.9999999996e+02
9.9999999996e+02
9.9999999996e+02
9.9999999996e+02
9.9999999996e+02
9.9999999996e+02
9.9999999996e+02
9.9999999996e+02
9.9999999996e+02
9.9999999996e+02
9.9999999994e+02
9.9999999984e+02
9.9999999897e+02
9.9999999263e+02
9.9999994957e+02
9.9999968182e+02
9.9999816204e+02
9.9999032591e+02
9.9995383722e+02
9.9980143707e+02
9.9923499511e+02
9.9737785059e+02
9.9205584656e+02
9.7883851890e+02
9.5057879882e+02
8.9876506776e+02
8.1754744491e+02
7.0823357135e+02
5.8632799679e+02
4.7552746209e+02
3.9139842156e+02
3.2191526126e+02
2.5685865388e+02
1.9962606565e+02
1.5904543413e+02
1.3725624407e+02
1.2855962487e+02
1.2587513384e+02
1.2518950839e+02
1.2503692989e+02
1.2500654241e+02
1.2500105943e+02
1.2500015739e+02
1.2500002152e+02
1.2500000272e+02
1.2500000032e+02
1.2500000004e+02
1.2500000001e+02
1.2500000001e+02
1.2500000000e+02
1.2500000000e+02
1.2500000000e+02
1.2500000000e+02
1.2500000000e+02
1.2500000000e+02
1.2500000000e+02
1.2500000000e+02
1.2500000000e+02
1.2500000000e+02
1.2500000000e+02
1.2500000000e+02
1.2500000000e+02
1.2500000000e+02
1.2500000000e+02
1.2500000000e+02
1.2500000000e+02
1.2500000000e+02
1.2500000000e+02
1.2500000000e+02
1.2500000000e+02
1.2500000000e+02
1.2500000000e+02
1.2500000000e+02
1.2500000000e+02
1.2500000000e+02
1.2500000000e+02
1.2500000000e+02
1.2500000000e+02
1.2500000000e+02
9.9999999996e+02
9.9999999996e+02
9.9999999996e+02
9.9999999996e+02
9.9999999996e+02
9.9999999996e+02
9.9999999996e+02
9.9999999996e+02
9.9999999996e+02
9.9999999996e+02
9.9999999996e+02
9.9999999996e+02
9.9999999996e+02
9.9999999996e+02
9.9999999996e+02
9.9999999996e+02
9.9999999996e+02
9.9999999996e+02
9.9999999996e+02
9.9999999996e+02
9.9999999996e+02
9.9999999996e+02
9.9999999996e+02
9.9999999996e+02
9.9999999996e+02
9.9999999996e+02
9.9999999996e+02
9.9999999996e+02
9.9999999996e+02
9.9999999996e+02
9.9999999996e+02
9.9999999994e+02
9.9999999984e+02
9.9999999897e+02
9.9999999263e+02
9.9999994957e+02
9.9999968182e+02
9.9999816204e+02
9.9999032591e+02
9.9995383722e+02
9.9980143707e+02
9.9923499511e+02
9.9737785059e+02
9.9205584656e+02
9.7883851890e+02
9.5057879882e+02
8.9876506776e+02
8.1754744491e+02
7.0823357135e+02
5.8632799679e+02
4.7552746209e+02
3.9139842156e+02
3.2191526126e+02
2.5685865388e+02
1.9962606565e+02
1.5904543413e+02
1.3725624407e+02
1.2855962487e+02
1.2587513384e+02
1.2518950839e+02
1.2503692989e+02
1.2500654241e+02
1.2500105943e+02
1.2500015739e+02
1.2500002152e+02
1.2500000272e+02
1.2500000032e+02
1.2500000004e+02
1.2500000001e+02
1.2500000001e+02
1.2500000000e+02
1.2500000000e+02
1.2500000000e+02
1.2500000000e+02
1.2500000000e+02
1.2500000000e+02
1.2500000000e+02
1.2500000000e+02
1.2500000000e+02
1.2500000000e+02
1.2500000000e+02
1.2500000000e+02
1.2500000000e+02
1.2500000000e+02
1.2500000000e+02
1.2500000000e+02
1.2500000000e+02
1.2500000000e+02
1.2500000000e+02
1.2500000000e+02
1.2500000000e+02
1.2500000000e+02
1.2500000000e+02
1.2500000000e+02
1.2500000000e+02
1.2500000000e+02
1.2500000000e+02
1.2500000000e+02
1.2500000000e+02
1.2500000000e+02
9.9999999996e+02
9.9999999996e+02
9.9999999996e+02
9.9999999996e+02
9.9999999996e+02
9.9999999996e+02
9.9999999996e+02
9.9999999996e+02
9.9999999996e+02
9.9999999996e+02
9.9999999996e+02
9.9999999996e+02
9.9999999996e+02
9.9999999996e+02
9.9999999996e+02
9.9999999996e+02
9.9999999996e+02
9.9999999996e+02
9.9999999996e+02
9.9999999996e+02
9.9999999996e+02
9.9999999996e+02
9.9999999996e+02
9.9999999996e+02
9.9999999996e+02
9.9999999996e+02
9.9999999996e+02
9.9999999996e+02
9.9999999996e+02
9.9999999996e+02
9.9999999996e+02
9.9999999994e+02
9.9999999984e+02
9.9999999897e+02
9.9999999263e+02
9.9999994957e+02
9.9999968182e+02
9.9999816204e+02
9.9999032591e+02
9.9995383722e+02
9.9980143707e+02
9.9923499511e+02
9.9737785059e+02
9.9205584656e+02
9.7883851890e+02
9.5057879882e+02
8.9876506776e+02
8.1754744491e+02
7.0823357135e+02
5.8632799679e+02
4.7552746209e+02
3.9139842156e+02
3.2191526126e+02
2.5685865388e+02
1.9962606565e+02
1.5904543413e+02
1.3725624407e+02
1.2855962487e+02
1.2587513384e+02
1.2518950839e+02
1.2503692989e+02
1.2500654241e+02
1.2500105943e+02
1.2500015739e+02
1.2500002152e+02
1.2500000272e+02
1.2500000032e+02
1.2500000004e+02
1.2500000001e+02
1.2500000001e+02
1.2500000000e+02
1.2500000000e+02
1.2500000000e+02
1.2500000000e+02
1.2500000000e+02
1.2500000000e+02
1.2500000000e+02
1.2500000000e+02
1.2500000000e+02
1.2500000000e+02
1.2500000000e+02
1.2500000000e+02
1.2500000000e+02
1.2500000000e+02
1.2500000000e+02
1.2500000000e+02
1.2500000000e+02
1.2500000000e+02
1.2500000000e+02
1.2500000000e+02
1.2500000000e+02
1.2500000000e+02
1.2500000000e+02
1.2500000000e+02
1.2500000000e+02
1.2500000000e+02
1.2500000000e+02
1.2500000000e+02
1.2500000000e+02
1.2500000000e+02
9.9999999996e+02
9.9999999996e+02
9.9999999996e+02
9.9999999996e+02
9.9999999996e+02
9.9999999996e+02
9.9999999996e+02
9.9999999996e+02
9.9999999996e+02
9.9999999996e+02
9.9999999996e+02
9.9999999996e+02
9.9999999996e+02
9.9999999996e+02
9.9999999996e+02
9.9999999996e+02
9.9999999996e+02
9.9999999996e+02
9.9999999996e+02
9.9999999996e+02
9.9999999996e+02
9.9999999996e+02
9.9999999996e+02
9.9999999996e+02
9.9999999996e+02
9.9999999996e+02
9.9999999996e+02
9.9999999996e+02
9.9999999996e+02
9.9999999996e+02
9.9999999996e+02
9.9999999994e+02
9.9999999984e+02
9.9999999897e+02
9.9999999263e+02
9.9999994957e+02
9.9999968182e+02
9.9999816204e+02
9.9999032591e+02
9.9995383722e+02
9.9980143707e+02
9.9923499511e+02
9.9737785059e+02
9.9205584656e+02
9.7883851890e+02
9.5057879882e+02
8.9876506776e+02
8.1754744491e+02
7.0823357135e+02
5.8632799679e+02
4.7552746209e+02
3.9139842156e+02
3.2191526126e+02
2.5685865388e+02
1.9962606565e+02
1.5904543413e+02
1.3725624407e+02
1.2855962487e+02
1.2587513384e+02
1.2518950839e+02
1.2503692989e+02
1.2500654241e+02
1.2500105943e+02
1.2500015739e+02
1.2500002152e+02
1.2500000272e+02
1.2500000032e+02
1.2500000004e+02
1.2500000001e+02
1.2500000001e+02
1.2500000000e+02
1.2500000000e+02
1.2500000000e+02
1.2500000000e+02
1.2500000000e+02
1.2500000000e+02
1.2500000000e+02
1.2500000000e+02
1.2500000000e+02
1.2500000000e+02
1.2500000000e+02
1.2500000000e+02
1.2500000000e+02
1.2500000000e+02
1.2500000000e+02
1.2500000000e+02
1.2500000000e+02
1.2500000000e+02
1.2500000000e+02
1.2500000000e+02
1.2500000000e+02
1.2500000000e+02
1.2500000000e+02
1.2500000000e+02
1.2500000000e+02
1.2500000000e+02
1.2500000000e+02
1.2500000000e+02
1.2500000000e+02
1.2500000000e+02

SCALARS molarDensity float
LOOKUP_TABLE default
1.2977624132e+05
1.2977624132e+05
1.2977624132e+05
1.2977624132e+05
1.2977624132e+05
1.2977624132e+05
1.2977624132e+05
1.2977624132e+05
1.2977624132e+05
1.2977624132e+05
1.2977624132e+05
1.2977624132e+05
1.2977624132e+05
1.2977624132e+05
1.2977624132e+05
1.2977624132e+05
1.2977624132e+05
1.2977624132e+05
1.2977624132e+05
1.2977624132e+05
1.2977624132e+05
1.2977624132e+05
1.2977624132e+05
1.2977624132e+05
1.2977624132e+05
1.2977624132e+05
1.2977624132e+05
1.2977624132e+05
1.2977624132e+05
1.2977624132e+05
1.2977624132e+05
1.2977624132e+05
1.2977624131e+05
1.2977624119e+05
1.2977624037e+05
1.2977623478e+05
1.2977620003e+05
1.2977600280e+05
1.2977498586e+05
1.2977025050e+05
1.2975047258e+05
1.2967696187e+05
1.2943594863e+05
1.2874527895e+05
1.2702998385e+05
1.2336254360e+05
1.1663835233e+05
1.0609823451e+05
9.1911890871e+04
7.6091443608e+04
6.1712166678e+04
5.0794216011e+04
4.1776952632e+04
3.3334150652e+04
2.5906720472e+04
2.0640318642e+04
1.7812599454e+04
1.6683984902e+04
1.6335601747e+04
1.6246623853e+04
1.6226822788e+04
1.6222879216e+04
1.6222167654e+04
1.6222050592e+04
1.6222032959e+04
1.6222030519e+04
1.6222030208e+04
1.6222030171e+04
1.6222030167e+04
1.6222030167e+04
1.6222030166e+04
1.6222030166e+04
1.6222030166e+04
1.6222030166e+04
1.6222030166e+04
1.6222030166e+04
1.6222030166e+04
1.6222030166e+04
1.6222030166e+04
1.6222030166e+04
1.6222030166e+04
1.6222030166e+04
1.6222030166e+04
1.6222030166e+04
1.6222030166e+04
1.6222030166e+04
1.6222030166e+04
1.6222030166e+04
1.6222030166e+04
1.6222030166e+04
1.6222030166e+04
1.6222030166e+04
1.6222030166e+04
1.6222030166e+04
1.6222030166e+04
1.6222030166e+04
1.6222030166e+04
1.6222030166e+04
1.6222030166e+04
1.6222030166e+04
1.2977624132e+05
1.2977624132e+05
1.2977624132e+05
1.2977624132e+05
1.2977624132e+05
1.2977624132e+05
1.2977624132e+05
1.2977624132e+05
1.2977624132e+05
1.2977624132e+05
1.2977624132e+05
1.2977624132e+05
1.2977624132e+05
1.2977624132e+05
1.2977624132e+05
1.2977624132e+05
1.2977624132e+05
1.2977624132e+05
1.2977624132e+05
1.2977624132e+05
1.2977624132e+05
1.2977624132e+05
1.2977624132e+05
1.2977624132e+05
1.2977624132e+05
1.2977624132e+05
1.2977624132e+05
1.2977624132e+05
1.2977624132e+05
1.2977624132e+05
1.2977624132e+05
1.2977624132e+05
1.2977624131e+05
1.2977624119e+05
1.2977624037e+05
1.2977623478e+05
1.2977620003e+05
1.2977600280e+05
1.2977498586e+05
1.2977025050e+05
1.2975047258e+05
1.2967696187e+05
1.2943594863e+05
1.2874527895e+05
1.2702998385e+05
1.2336254360e+05
1.1663835233e+05
1.0609823451e+05
9.1911890871e+04
7.6091443608e+04
6.1712166678e+04
5.0794216011e+04
4.1776952632e+04
3.3334150652e+04
2.5906720472e+04
2.0640318642e+04
1.7812599454e+04
1.6683984902e+04
1.6335601747e+04
1.6246623853e+04
1.6226822788e+04
1.6222879216e+04
1.6222167654e+04
1.6222050592e+04
1.6222032959e+04
1.6222030519e+04
1.6222030208e+04
1.6222030171e+04
1.6222030167e+04