# vtk DataFile Version 2.0
Blank
ASCII
DATASET STRUCTURED_GRID
DIMENSIONS 101 11 2
POINTS 2222 float
0.0000000000e+00 0.0000000000e+00 0.0000000000e+00
1.0000000000e-02 0.0000000000e+00 0.0000000000e+00
2.0000000000e-02 0.0000000000e+00 0.0000000000e+00
3.0000000000e-02 0.0000000000e+00 0.0000000000e+00
4.0000000000e-02 0.0000000000e+00 0.0000000000e+00
5.0000000000e-02 0.0000000000e+00 0.0000000000e+00
6.0000000000e-02 0.0000000000e+00 0.0000000000e+00
7.0000000000e-02 0.0000000000e+00 0.0000000000e+00
8.0000000000e-02 0.0000000000e+00 0.0000000000e+00
9.0000000000e-02 0.0000000000e+00 0.0000000000e+00
1.0000000000e-01 0.0000000000e+00 0.0000000000e+00
1.1000000000e-01 0.0000000000e+00 0.0000000000e+00
1.2000000000e-01 0.0000000000e+00 0.0000000000e+00
1.3000000000e-01 0.0000000000e+00 0.0000000000e+00
1.4000000000e-01 0.0000000000e+00 0.0000000000e+00
1.5000000000e-01 0.0000000000e+00 0.0000000000e+00
1.6000000000e-01 0.0000000000e+00 0.0000000000e+00
1.7000000000e-01 0.0000000000e+00 0.0000000000e+00
1.8000000000e-01 0.0000000000e+00 0.0000000000e+00
1.9000000000e-01 0.0000000000e+00 0.0000000000e+00
2.0000000000e-01 0.0000000000e+00 0.0000000000e+00
2.1000000000e-01 0.0000000000e+00 0.0000000000e+00
2.2000000000e-01 0.0000000000e+00 0.0000000000e+00
2.3000000000e-01 0.0000000000e+00 0.0000000000e+00
2.4000000000e-01 0.0000000000e+00 0.0000000000e+00
2.5000000000e-01 0.0000000000e+00 0.0000000000e+00
2.6000000000e-01 0.0000000000e+00 0.0000000000e+00
2.7000000000e-01 0.0000000000e+00 0.0000000000e+00
2.8000000000e-01 0.0000000000e+00 0.0000000000e+00
2.9000000000e-01 0.0000000000e+00 0.0000000000e+00
3.0000000000e-01 0.0000000000e+00 0.0000000000e+00
3.1000000000e-01 0.0000000000e+00 0.0000000000e+00
3.2000000000e-01 0.0000000000e+00 0.0000000000e+00
3.3000000000e-01 0.0000000000e+00 0.0000000000e+00
3.4000000000e-01 0.0000000000e+00 0.0000000000e+00
3.5000000000e-01 0.0000000000e+00 0.0000000000e+00
3.6000000000e-01 0.0000000000e+00 0.0000000000e+00
3.7000000000e-01 0.0000000000e+00 0.0000000000e+00
3.8000000000e-01 0.0000000000e+00 0.0000000000e+00
3.9000000000e-01 0.0000000000e+00 0.0000000000e+00
4.0000000000e-01 0.0000000000e+00 0.0000000000e+00
4.1000000000e-01 0.0000000000e+00 0.0000000000e+00
4.2000000000e-01 0.0000000000e+00 0.0000000000e+00
4.3000000000e-01 0.0000000000e+00 0.0000000000e+00
4.4000000000e-01 0.0000000000e+00 0.0000000000e+00
4.5000000000e-01 0.0000000000e+00 0.0000000000e+00
4.6000000000e-01 0.0000000000e+00 0.0000000000e+00
4.7000000000e-01 0.0000000000e+00 0.0000000000e+00
4.8000000000e-01 0.0000000000e+00 0.0000000000e+00
4.9000000000e-01 0.0000000000e+00 0.0000000000e+00
5.0000000000e-01 0.0000000000e+00 0.0000000000e+00
5.1000000000e-01 0.0000000000e+00 0.0000000000e+00
5.2000000000e-01 0.0000000000e+00 0.0000000000e+00
5.3000000000e-01 0.0000000000e+00 0.0000000000e+00
5.4000000000e-01 0.0000000000e+00 0.0000000000e+00
5.5000000000e-01 0.0000000000e+00 0.0000000000e+00
5.6000000000e-01 0.0000000000e+00 0.0000000000e+00
5.7000000000e-01 0.0000000000e+00 0.0000000000e+00
5.8000000000e-01 0.0000000000e+00 0.0000000000e+00
5.9000000000e-01 0.0000000000e+00 0.0000000000e+00
6.0000000000e-01 0.0000000000e+00 0.0000000000e+00
6.1000000000e-01 0.0000000000e+00 0.0000000000e+00
6.2000000000e-01 0.0000000000e+00 0.0000000000e+00
6.3000000000e-01 0.0000000000e+00 0.0000000000e+00
6.4000000000e-01 0.0000000000e+00 0.0000000000e+00
6.5000000000e-01 0.0000000000e+00 0.0000000000e+00
6.6000000000e-01 0.0000000000e+00 0.0000000000e+00
6.7000000000e-01 0.0000000000e+00 0.0000000000e+00
6.8000000000e-01 0.0000000000e+00 0.0000000000e+00
6.9000000000e-01 0.0000000000e+00 0.0000000000e+00
7.0000000000e-01 0.0000000000e+00 0.0000000000e+00
7.1000000000e-01 0.0000000000e+00 0.0000000000e+00
7.2000000000e-01 0.0000000000e+00 0.0000000000e+00
7.3000000000e-01 0.0000000000e+00 0.0000000000e+00
7.4000000000e-01 0.0000000000e+00 0.0000000000e+00
7.5000000000e-01 0.0000000000e+00 0.0000000000e+00
7.6000000000e-01 0.0000000000e+00 0.0000000000e+00
7.7000000000e-01 0.0000000000e+00 0.0000000000e+00
7.8000000000e-01 0.0000000000e+00 0.0000000000e+00
7.9000000000e-01 0.0000000000e+00 0.0000000000e+00
8.0000000000e-01 0.0000000000e+00 0.0000000000e+00
8.1000000000e-01 0.0000000000e+00 0.0000000000e+00
8.2000000000e-01 0.0000000000e+00 0.0000000000e+00
8.3000000000e-01 0.0000000000e+00 0.0000000000e+00
8.4000000000e-01 0.0000000000e+00 0.0000000000e+00
8.5000000000e-01 0.0000000000e+00 0.0000000000e+00
8.6000000000e-01 0.0000000000e+00 0.0000000000e+00
8.7000000000e-01 0.0000000000e+00 0.0000000000e+00
8.8000000000e-01 0.0000000000e+00 0.0000000000e+00
8.9000000000e-01 0.0000000000e+00 0.0000000000e+00
9.0000000000e-01 0.0000000000e+00 0.0000000000e+00
9.1000000000e-01 0.0000000000e+00 0.0000000000e+00
9.2000000000e-01 0.0000000000e+00 0.0000000000e+00
9.3000000000e-01 0.0000000000e+00 0.0000000000e+00
9.4000000000e-01 0.0000000000e+00 0.0000000000e+00
9.5000000000e-01 0.0000000000e+00 0.0000000000e+00
9.6000000000e-01 0.0000000000e+00 0.0000000000e+00
9.7000000000e-01 0.0000000000e+00 0.0000000000e+00
9.8000000000e-01 0.0000000000e+00 0.0000000000e+00
9.9000000000e-01 0.0000000000e+00 0.0000000000e+00
1.0000000000e+00 0.0000000000e+00 0.0000000000e+00
0.0000000000e+00 1.0000000000e-03 0.0000000000e+00
1.0000000000e-02 1.0000000000e-03 0.0000000000e+00
2.0000000000e-02 1.0000000000e-03 0.0000000000e+00
3.0000000000e-02 1.0000000000e-03 0.0000000000e+00
4.0000000000e-02 1.0000000000e-03 0.0000000000e+00
5.0000000000e-02 1.0000000000e-03 0.0000000000e+00
6.0000000000e-02 1.0000000000e-03 0.0000000000e+00
7.0000000000e-02 1.0000000000e-03 0.0000000000e+00
8.0000000000e-02 1.0000000000e-03 0.0000000000e+00
9.0000000000e-02 1.0000000000e-03 0.0000000000e+00
1.0000000000e-01 1.0000000000e-03 0.0000000000e+00
1.1000000000e-01 1.0000000000e-03 0.0000000000e+00
1.2000000000e-01 1.0000000000e-03 0.0000000000e+00
1.3000000000e-01 1.0000000000e-03 0.0000000000e+00
1.4000000000e-01 1.0000000000e-03 0.0000000000e+00
1.5000000000e-01 1.0000000000e-03 0.0000000000e+00
1.6000000000e-01 1.0000000000e-03 0.0000000000e+00
1.7000000000e-01 1.0000000000e-03 0.0000000000e+00
1.8000000000e-01 1.0000000000e-03 0.0000000000e+00
1.9000000000e-01 1.0000000000e-03 0.0000000000e+00
2.0000000000e-01 1.0000000000e-03 0.0000000000e+00
2.1000000000e-01 1.0000000000e-03 0.0000000000e+00
2.2000000000e-01 1.0000000000e-03 0.0000000000e+00
2.3000000000e-01 1.0000000000e-03 0.0000000000e+00
2.4000000000e-01 1.0000000000e-03 0.0000000000e+00
2.5000000000e-01 1.0000000000e-03 0.0000000000e+00
2.6000000000e-01 1.0000000000e-03 0.0000000000e+00
2.7000000000e-01 1.0000000000e-03 0.0000000000e+00
2.8000000000e-01 1.0000000000e-03 0.0000000000e+00
2.9000000000e-01 1.0000000000e-03 0.0000000000e+00
3.0000000000e-01 1.0000000000e-03 0.0000000000e+00
3.1000000000e-01 1.0000000000e-03 0.0000000000e+00
3.2000000000e-01 1.0000000000e-03 0.0000000000e+00
3.3000000000e-01 1.0000000000e-03 0.0000000000e+00
3.4000000000e-01 1.0000000000e-03 0.0000000000e+00
3.5000000000e-01 1.0000000000e-03 0.0000000000e+00
3.6000000000e-01 1.0000000000e-03 0.0000000000e+00
3.7000000000e-01 1.0000000000e-03 0.0000000000e+00
3.8000000000e-01 1.0000000000e-03 0.0000000000e+00
3.9000000000e-01 1.0000000000e-03 0.0000000000e+00
4.0000000000e-01 1.0000000000e-03 0.0000000000e+00
4.1000000000e-01 1.0000000000e-03 0.0000000000e+00
4.2000000000e-01 1.0000000000e-03 0.0000000000e+00
4.3000000000e-01 1.0000000000e-03 0.0000000000e+00
4.4000000000e-01 1.0000000000e-03 0.0000000000e+00
4.5000000000e-01 1.0000000000e-03 0.0000000000e+00
4.6000000000e-01 1.0000000000e-03 0.0000000000e+00
4.7000000000e-01 1.0000000000e-03 0.0000000000e+00
4.8000000000e-01 1.0000000000e-03 0.0000000000e+00
4.9000000000e-01 1.0000000000e-03 0.0000000000e+00
5.0000000000e-01 1.0000000000e-03 0.0000000000e+00
5.1000000000e-01 1.0000000000e-03 0.0000000000e+00
5.2000000000e-01 1.0000000000e-03 0.0000000000e+00
5.3000000000e-01 1.0000000000e-03 0.0000000000e+00
5.4000000000e-01 1.0000000000e-03 0.0000000000e+00
5.5000000000e-01 1.0000000000e-03 0.0000000000e+00
5.6000000000e-01 1.0000000000e-03 0.0000000000e+00
5.7000000000e-01 1.0000000000e-03 0.0000000000e+00
5.8000000000e-01 1.0000000000e-03 0.0000000000e+00
5.9000000000e-01 1.0000000000e-03 0.0000000000e+00
6.0000000000e-01 1.0000000000e-03 0.0000000000e+00
6.1000000000e-01 1.0000000000e-03 0.0000000000e+00
6.2000000000e-01 1.0000000000e-03 0.0000000000e+00
6.3000000000e-01 1.0000000000e-03 0.0000000000e+00
6.4000000000e-01 1.0000000000e-03 0.0000000000e+00
6.5000000000e-01 1.0000000000e-03 0.0000000000e+00
6.6000000000e-01 1.0000000000e-03 0.0000000000e+00
6.7000000000e-01 1.0000000000e-03 0.0000000000e+00
6.8000000000e-01 1.0000000000e-03 0.0000000000e+00
6.9000000000e-01 1.0000000000e-03 0.0000000000e+00
7.0000000000e-01 1.0000000000e-03 0.0000000000e+00
7.1000000000e-01 1.0000000000e-03 0.0000000000e+00
7.2000000000e-01 1.0000000000e-03 0.0000000000e+00
7.3000000000e-01 1.0000000000e-03 0.0000000000e+00
7.4000000000e-01 1.0000000000e-03 0.0000000000e+00
7.5000000000e-01 1.0000000000e-03 0.0000000000e+00
7.6000000000e-01 1.0000000000e-03 0.0000000000e+00
7.7000000000e-01 1.0000000000e-03 0.0000000000e+00
7.8000000000e-01 1.0000000000e-03 0.0000000000e+00
7.9000000000e-01 1.0000000000e-03 0.0000000000e+00
8.0000000000e-01 1.0000000000e-03 0.0000000000e+00
8.1000000000e-01 1.0000000000e-03 0.0000000000e+00
8.2000000000e-01 1.0000000000e-03 0.0000000000e+00
8.3000000000e-01 1.0000000000e-03 0.0000000000e+00
8.4000000000e-01 1.0000000000e-03 0.0000000000e+00
8.5000000000e-01 1.0000000000e-03 0.0000000000e+00
8.6000000000e-01 1.0000000000e-03 0.0000000000e+00
8.7000000000e-01 1.0000000000e-03 0.0000000000e+00
8.8000000000e-01 1.0000000000e-03 0.0000000000e+00
8.9000000000e-01 1.0000000000e-03 0.0000000000e+00
9.0000000000e-01 1.0000000000e-03 0.0000000000e+00
9.1000000000e-01 1.0000000000e-03 0.0000000000e+00
9.2000000000e-01 1.0000000000e-03 0.0000000000e+00
[...]
CELL_DATA 1000

SCALARS massDensity float
LOOKUP_TABLE default
9.9999999972e+02
9.9999999944e+02
9.9999999854e+02
9.9999999607e+02
9.9999998950e+02
9.9999997250e+02
9.9999992962e+02
9.9999982421e+02
9.9999957185e+02
9.9999898389e+02
9.9999765145e+02
9.9999471655e+02
9.9998843772e+02
9.9997540108e+02
9.9994915312e+02
9.9989795078e+02
9.9980126811e+02
9.9962472251e+02
9.9931327008e+02
9.9878295252e+02
9.9791219293e+02
9.9653454098e+02
9.9443557063e+02
9.9135686821e+02
9.8700924362e+02
9.8109528940e+02
9.7333863579e+02
9.6351472578e+02
9.5147683065e+02
9.3717198560e+02
9.2064422320e+02
9.0202578973e+02
8.8151966139e+02
8.5937785610e+02
8.3587974969e+02
8.1131338788e+02
7.8596131180e+02
7.6009117912e+02
7.3395067382e+02
7.0776584223e+02
6.8174194608e+02
6.5606604527e+02
6.3091070000e+02
6.0643833951e+02
5.8280593344e+02
5.6016958389e+02
5.3868849142e+02
5.1852739548e+02
4.9985603383e+02
4.8284348610e+02
4.6764476908e+02
4.5437736567e+02
4.4308733775e+02
4.3370869268e+02
4.2602451780e+02
4.1964565741e+02
4.1401836087e+02
4.0846290802e+02
4.0226833552e+02
3.9481017512e+02
3.8567722418e+02
3.7476844304e+02
3.6232219520e+02
3.4886321117e+02
3.3508553668e+02
3.2171194523e+02
3.0937107841e+02
2.9851825304e+02
2.8940802792e+02
2.8211592432e+02
2.7659950946e+02
2.7276292412e+02
2.7041222072e+02
2.6888932013e+02
2.6630012401e+02
2.5901848646e+02
2.4300637542e+02
2.1740890031e+02
1.8713391072e+02
1.6023816648e+02
1.4198114590e+02
1.3219008381e+02
1.2779879536e+02
1.2603954082e+02
1.2537649987e+02
1.2513428805e+02
1.2504733888e+02
1.2501650585e+02
1.2500569030e+02
1.2500193809e+02
1.2500065159e+02
1.2500021606e+02
1.2500007060e+02
1.2500002272e+02
1.2500000720e+02
1.2500000225e+02
1.2500000069e+02
1.2500000021e+02
1.2500000007e+02
1.2500000003e+02
9.9999999972e+02
9.9999999944e+02
9.9999999854e+02
9.9999999607e+02
9.9999998950e+02
9.9999997250e+02
9.9999992962e+02
9.9999982421e+02
9.9999957185e+02
9.9999898389e+02
9.9999765145e+02
9.9999471655e+02
9.9998843772e+02
9.9997540108e+02
9.9994915312e+02
9.9989795078e+02
9.9980126811e+02
9.9962472251e+02
9.9931327008e+02
9.9878295252e+02
9.9791219293e+02
9.9653454098e+02
9.9443557063e+02
9.9135686821e+02
9.8700924362e+02
9.8109528940e+02
9.7333863579e+02
9.6351472578e+02
9.5147683065e+02
9.3717198560e+02
9.2064422320e+02
9.0202578973e+02
8.8151966139e+02
8.5937785610e+02
8.3587974969e+02
8.1131338788e+02
7.8596131180e+02
7.6009117912e+02
7.3395067382e+02
7.0776584223e+02
6.8174194608e+02
6.5606604527e+02
6.3091070000e+02
6.0643833951e+02
5.8280593344e+02
5.6016958389e+02
5.3868849142e+02
5.1852739548e+02
4.9985603383e+02
4.8284348610e+02
4.6764476908e+02
4.5437736567e+02
4.4308733775e+02
4.3370869268e+02
4.2602451780e+02
4.1964565741e+02
4.1401836087e+02
4.0846290802e+02
4.0226833552e+02
3.9481017512e+02
3.8567722418e+02
3.7476844304e+02
3.6232219520e+02
3.4886321117e+02
3.3508553668e+02
3.2171194523e+02
3.0937107841e+02
2.9851825304e+02
2.8940802792e+02
2.8211592432e+02
2.7659950946e+02
2.7276292412e+02
2.7041222072e+02
2.6888932013e+02
2.6630012401e+02
2.5901848646e+02
2.4300637542e+02
2.1740890031e+02
1.8713391072e+02
1.6023816648e+02
1.4198114590e+02
1.3219008381e+02
1.2779879536e+02
1.2603954082e+02
1.2537649987e+02
1.2513428805e+02
1.2504733888e+02
1.2501650585e+02
1.2500569030e+02
1.2500193809e+02
1.2500065159e+02
1.2500021606e+02
1.2500007060e+02
1.2500002272e+02
1.2500000720e+02
1.2500000225e+02
1.2500000069e+02
1.2500000021e+02
1.2500000007e+02
1.2500000003e+02
9.9999999972e+02
9.9999999944e+02
9.9999999854e+02
9.9999999607e+02
9.9999998950e+02
9.9999997250e+02
9.9999992962e+02
9.9999982421e+02
9.9999957185e+02
9.9999898389e+02
9.9999765145e+02
9.9999471655e+02
9.9998843772e+02
9.9997540108e+02
9.9994915312e+02
9.9989795078e+02
9.9980126811e+02
9.9962472251e+02
9.9931327008e+02
9.9878295252e+02
9.9791219293e+02
9.9653454098e+02
9.9443557063e+02
9.9135686821e+02
9.8700924362e+02
9.8109528940e+02
9.7333863579e+02
9.6351472578e+02
9.5147683065e+02
9.3717198560e+02
9.2064422320e+02
9.0202578973e+02
8.8151966139e+02
8.5937785610e+02
8.3587974969e+02
8.1131338788e+02
7.8596131180e+02
7.6009117912e+02
7.3395067382e+02
7.0776584223e+02
6.8174194608e+02
6.5606604527e+02
6.3091070000e+02
6.0643833951e+02
5.8280593344e+02
5.6016958389e+02
5.3868849142e+02
5.1852739548e+02
4.9985603383e+02
4.8284348610e+02
4.6764476908e+02
4.5437736567e+02
4.4308733775e+02
4.3370869268e+02
4.2602451780e+02
4.1964565741e+02
4.1401836087e+02
4.0846290802e+02
4.0226833552e+02
3.9481017512e+02
3.8567722418e+02
3.7476844304e+02
3.6232219520e+02
3.4886321117e+02
3.3508553668e+02
3.2171194523e+02
3.0937107841e+02
2.9851825304e+02
2.8940802792e+02
2.8211592432e+02
2.7659950946e+02
2.7276292412e+02
2.7041222072e+02
2.6888932013e+02
2.6630012401e+02
2.5901848646e+02
2.4300637542e+02
2.1740890031e+02
1.8713391072e+02
1.6023816648e+02
1.4198114590e+02
1.3219008381e+02
1.2779879536e+02
1.2603954082e+02
1.2537649987e+02
1.2513428805e+02
1.2504733888e+02
1.2501650585e+02
1.2500569030e+02
1.2500193809e+02
1.2500065159e+02
1.2500021606e+02
1.2500007060e+02
1.2500002272e+02
1.2500000720e+02
1.2500000225e+02
1.2500000069e+02
1.2500000021e+02
1.2500000007e+02
1.2500000003e+02
9.9999999972e+02
9.9999999944e+02
9.9999999854e+02
9.9999999607e+02
9.9999998950e+02
9.9999997250e+02
9.9999992962e+02
9.9999982421e+02
9.9999957185e+02
9.9999898389e+02
9.9999765145e+02
9.9999471655e+02
9.9998843772e+02
9.9997540108e+02
9.9994915312e+02
9.9989795078e+02
9.9980126811e+02
9.9962472251e+02
9.9931327008e+02
9.9878295252e+02
9.9791219293e+02
9.9653454098e+02
9.9443557063e+02
9.9135686821e+02
9.8700924362e+02
9.8109528940e+02
9.7333863579e+02
9.6351472578e+02
9.5147683065e+02
9.3717198560e+02
9.2064422320e+02
9.0202578973e+02
8.8151966139e+02
8.5937785610e+02
8.3587974969e+02
8.1131338788e+02
7.8596131180e+02
7.6009117912e+02
7.3395067382e+02
7.0776584223e+02
6.8174194608e+02
6.5606604527e+02
6.3091070000e+02
6.0643833951e+02
5.8280593344e+02
5.6016958389e+02
5.3868849142e+02
5.1852739548e+02
4.9985603383e+02
4.8284348610e+02
4.6764476908e+02
4.5437736567e+02
4.4308733775e+02
4.3370869268e+02
4.2602451780e+02
4.1964565741e+02
4.1401836087e+02
4.0846290802e+02
4.0226833552e+02
3.9481017512e+02
3.8567722418e+02
3.7476844304e+02
3.6232219520e+02
3.4886321117e+02
3.3508553668e+02
3.2171194523e+02
3.0937107841e+02
2.9851825304e+02
2.8940802792e+02
2.8211592432e+02
2.7659950946e+02
2.7276292412e+02
2.7041222072e+02
2.6888932013e+02
2.6630012401e+02
2.5901848646e+02
2.4300637542e+02
2.1740890031e+02
1.8713391072e+02
1.6023816648e+02
1.4198114590e+02
1.3219008381e+02
1.2779879536e+02
1.2603954082e+02
1.2537649987e+02
1.2513428805e+02
1.2504733888e+02
1.2501650585e+02
1.2500569030e+02
1.2500193809e+02
1.2500065159e+02
1.2500021606e+02
1.2500007060e+02
1.2500002272e+02
1.2500000720e+02
1.2500000225e+02
1.2500000069e+02
1.2500000021e+02
1.2500000007e+02
1.2500000003e+02
9.9999999972e+02
9.9999999944e+02
9.9999999854e+02
9.9999999607e+02
9.9999998950e+02
9.9999997250e+02
9.9999992962e+02
9.9999982421e+02
9.9999957185e+02
9.9999898389e+02
9.9999765145e+02
9.9999471655e+02
9.9998843772e+02
9.9997540108e+02
9.9994915312e+02
9.9989795078e+02
9.9980126811e+02
9.9962472251e+02
9.9931327008e+02
9.9878295252e+02
9.9791219293e+02
9.9653454098e+02
9.9443557063e+02
9.9135686821e+02
9.8700924362e+02
9.8109528940e+02
9.7333863579e+02
9.6351472578e+02
9.5147683065e+02
9.3717198560e+02
9.2064422320e+02
9.0202578973e+02
8.8151966139e+02
8.5937785610e+02
8.3587974969e+02
8.1131338788e+02
7.8596131180e+02
7.6009117912e+02
7.3395067382e+02
7.0776584223e+02
6.8174194608e+02
6.5606604527e+02
6.3091070000e+02
6.0643833951e+02
5.8280593344e+02
5.6016958389e+02
5.3868849142e+02
5.1852739548e+02
4.9985603383e+02
4.8284348610e+02
4.6764476908e+02
4.5437736567e+02
4.4308733775e+02
4.3370869268e+02
4.2602451780e+02
4.1964565741e+02
4.1401836087e+02
4.0846290802e+02
4.0226833552e+02
3.9481017512e+02
3.8567722418e+02
3.7476844304e+02
3.6232219520e+02
3.4886321117e+02
3.3508553668e+02
3.2171194523e+02
3.0937107841e+02
2.9851825304e+02
2.8940802792e+02
2.8211592432e+02
2.7659950946e+02
2.7276292412e+02
2.7041222072e+02
2.6888932013e+02
2.6630012401e+02
2.5901848646e+02
2.4300637542e+02
2.1740890031e+02
1.8713391072e+02
1.6023816648e+02
1.4198114590e+02
1.3219008381e+02
1.2779879536e+02
1.2603954082e+02
1.2537649987e+02
1.2513428805e+02
1.2504733888e+02
1.2501650585e+02
1.2500569030e+02
1.2500193809e+02
1.2500065159e+02
1.2500021606e+02
1.2500007060e+02
1.2500002272e+02
1.2500000720e+02
1.2500000225e+02
1.2500000069e+02
1.2500000021e+02
1.2500000007e+02
1.2500000003e+02
9.9999999972e+02
9.9999999944e+02
9.9999999854e+02
9.9999999607e+02
9.9999998950e+02
9.9999997250e+02
9.9999992962e+02
9.9999982421e+02
9.9999957185e+02
9.9999898389e+02
9.9999765145e+02
9.9999471655e+02
9.9998843772e+02
9.9997540108e+02
9.9994915312e+02
9.9989795078e+02
9.9980126811e+02
9.9962472251e+02
9.9931327008e+02
9.9878295252e+02
9.9791219293e+02
9.9653454098e+02
9.9443557063e+02
9.9135686821e+02
9.8700924362e+02
9.8109528940e+02
9.7333863579e+02
9.6351472578e+02
9.5147683065e+02
9.3717198560e+02
9.2064422320e+02
9.0202578973e+02
8.8151966139e+02
8.5937785610e+02
8.3587974969e+02
8.1131338788e+02
7.8596131180e+02
7.6009117912e+02
7.3395067382e+02
7.0776584223e+02
6.8174194608e+02
6.5606604527e+02
6.3091070000e+02
6.0643833951e+02
5.8280593344e+02
5.6016958389e+02
5.3868849142e+02
5.1852739548e+02
4.9985603383e+02
4.8284348610e+02
4.6764476908e+02
4.5437736567e+02
4.4308733775e+02
4.3370869268e+02
4.2602451780e+02
4.1964565741e+02
4.1401836087e+02
4.0846290802e+02
4.0226833552e+02
3.9481017512e+02
3.8567722418e+02
3.7476844304e+02
3.6232219520e+02
3.4886321117e+02
3.3508553668e+02
3.2171194523e+02
3.0937107841e+02
2.9851825304e+02
2.8940802792e+02
2.8211592432e+02
2.7659950946e+02
2.7276292412e+02
2.7041222072e+02
2.6888932013e+02
2.6630012401e+02
2.5901848646e+02
2.4300637542e+02
2.1740890031e+02
1.8713391072e+02
1.6023816648e+02
1.4198114590e+02
1.3219008381e+02
1.2779879536e+02
1.2603954082e+02
1.2537649987e+02
1.2513428805e+02
1.2504733888e+02
1.2501650585e+02
1.2500569030e+02
1.2500193809e+02
1.2500065159e+02
1.2500021606e+02
1.2500007060e+02
1.2500002272e+02
1.2500000720e+02
1.2500000225e+02
1.2500000069e+02
1.2500000021e+02
1.2500000007e+02
1.2500000003e+02
9.9999999972e+02
9.9999999944e+02
9.9999999854e+02
9.9999999607e+02
9.9999998950e+02
9.9999997250e+02
9.9999992962e+02
9.9999982421e+02
9.9999957185e+02
9.9999898389e+02
9.9999765145e+02
9.9999471655e+02
9.9998843772e+02
9.9997540108e+02
9.9994915312e+02
9.9989795078e+02
9.9980126811e+02
9.9962472251e+02
9.9931327008e+02
9.9878295252e+02
9.9791219293e+02
9.9653454098e+02
9.9443557063e+02
9.9135686821e+02
9.8700924362e+02
9.8109528940e+02
9.7333863579e+02
9.6351472578e+02
9.5147683065e+02
9.3717198560e+02
9.2064422320e+02
9.0202578973e+02
8.8151966139e+02
8.5937785610e+02
8.3587974969e+02
8.1131338788e+02
7.8596131180e+02
7.6009117912e+02
7.3395067382e+02
7.0776584223e+02
6.8174194608e+02
6.5606604527e+02
6.3091070000e+02
6.0643833951e+02
5.8280593344e+02
5.6016958389e+02
5.3868849142e+02
5.1852739548e+02
4.9985603383e+02
4.8284348610e+02
4.6764476908e+02
4.5437736567e+02
4.4308733775e+02
4.3370869268e+02
4.2602451780e+02
4.1964565741e+02
4.1401836087e+02
4.0846290802e+02
4.0226833552e+02
3.9481017512e+02
3.8567722418e+02
3.7476844304e+02
3.6232219520e+02
3.4886321117e+02
3.3508553668e+02
3.2171194523e+02
3.0937107841e+02
2.9851825304e+02
2.8940802792e+02
2.8211592432e+02
2.7659950946e+02
2.7276292412e+02
2.7041222072e+02
2.6888932013e+02
2.6630012401e+02
2.5901848646e+02
2.4300637542e+02
2.1740890031e+02
1.8713391072e+02
1.6023816648e+02
1.4198114590e+02
1.3219008381e+02
1.2779879536e+02
1.2603954082e+02
1.2537649987e+02
1.2513428805e+02
1.2504733888e+02
1.2501650585e+02
1.2500569030e+02
1.2500193809e+02
1.2500065159e+02
1.2500021606e+02
1.2500007060e+02
1.2500002272e+02
1.2500000720e+02
1.2500000225e+02
1.2500000069e+02
1.2500000021e+02
1.2500000007e+02
1.2500000003e+02
9.9999999972e+02
9.9999999944e+02
9.9999999854e+02
9.9999999607e+02
9.9999998950e+02
9.9999997250e+02
9.9999992962e+02
9.9999982421e+02
9.9999957185e+02
9.9999898389e+02
9.9999765145e+02
9.9999471655e+02
9.9998843772e+02
9.9997540108e+02
9.9994915312e+02
9.9989795078e+02
9.9980126811e+02
9.9962472251e+02
9.9931327008e+02
9.9878295252e+02
9.9791219293e+02
9.9653454098e+02
9.9443557063e+02
9.9135686821e+02
9.8700924362e+02
9.8109528940e+02
9.7333863579e+02
9.6351472578e+02
9.5147683065e+02
9.3717198560e+02
9.2064422320e+02
9.0202578973e+02
8.8151966139e+02
8.5937785610e+02
8.3587974969e+02
8.1131338788e+02
7.8596131180e+02
7.6009117912e+02
7.3395067382e+02
7.0776584223e+02
6.8174194608e+02
6.5606604527e+02
6.3091070000e+02
6.0643833951e+02
5.8280593344e+02
5.6016958389e+02
5.3868849142e+02
5.1852739548e+02
4.9985603383e+02
4.8284348610e+02
4.6764476908e+02
4.5437736567e+02
4.4308733775e+02
4.3370869268e+02
4.2602451780e+02
4.1964565741e+02
4.1401836087e+02
4.0846290802e+02
4.0226833552e+02
3.9481017512e+02
3.8567722418e+02
3.7476844304e+02
3.6232219520e+02
3.4886321117e+02
3.3508553668e+02
3.2171194523e+02
3.0937107841e+02
2.9851825304e+02
2.8940802792e+02
2.8211592432e+02
2.7659950946e+02
2.7276292412e+02
2.7041222072e+02
2.6888932013e+02
2.6630012401e+02
2.5901848646e+02
2.4300637542e+02
2.1740890031e+02
1.8713391072e+02
1.6023816648e+02
1.4198114590e+02
1.3219008381e+02
1.2779879536e+02
1.2603954082e+02
1.2537649987e+02
1.2513428805e+02
1.2504733888e+02
1.2501650585e+02
1.2500569030e+02
1.2500193809e+02
1.2500065159e+02
1.2500021606e+02
1.2500007060e+02
1.2500002272e+02
1.2500000720e+02
1.2500000225e+02
1.2500000069e+02
1.2500000021e+02
1.2500000007e+02
1.2500000003e+02
9.9999999972e+02
9.9999999944e+02
9.9999999854e+02
9.9999999607e+02
9.9999998950e+02
9.9999997250e+02
9.9999992962e+02
9.9999982421e+02
9.9999957185e+02
9.9999898389e+02
9.9999765145e+02
9.9999471655e+02
9.9998843772e+02
9.9997540108e+02
9.9994915312e+02
9.9989795078e+02
9.9980126811e+02
9.9962472251e+02
9.9931327008e+02
9.9878295252e+02
9.9791219293e+02
9.9653454098e+02
9.9443557063e+02
9.9135686821e+02
9.8700924362e+02
9.8109528940e+02
9.7333863579e+02
9.6351472578e+02
9.5147683065e+02
9.3717198560e+02
9.2064422320e+02
9.0202578973e+02
8.8151966139e+02
8.5937785610e+02
8.3587974969e+02
8.1131338788e+02
7.8596131180e+02
7.6009117912e+02
7.3395067382e+02
7.0776584223e+02
6.8174194608e+02
6.5606604527e+02
6.3091070000e+02
6.0643833951e+02
5.8280593344e+02
5.6016958389e+02
5.3868849142e+02
5.1852739548e+02
4.9985603383e+02
4.8284348610e+02
4.6764476908e+02
4.5437736567e+02
4.4308733775e+02
4.3370869268e+02
4.2602451780e+02
4.1964565741e+02
4.1401836087e+02
4.0846290802e+02
4.0226833552e+02
3.9481017512e+02
3.8567722418e+02
3.7476844304e+02
3.6232219520e+02
3.4886321117e+02
3.3508553668e+02
3.2171194523e+02
3.0937107841e+02
2.9851825304e+02
2.8940802792e+02
2.8211592432e+02
2.7659950946e+02
2.7276292412e+02
2.7041222072e+02
2.6888932013e+02
2.6630012401e+02
2.5901848646e+02
2.4300637542e+02
2.1740890031e+02
1.8713391072e+02
1.6023816648e+02
1.4198114590e+02
1.3219008381e+02
1.2779879536e+02
1.2603954082e+02
1.2537649987e+02
1.2513428805e+02
1.2504733888e+02
1.2501650585e+02
1.2500569030e+02
1.2500193809e+02
1.2500065159e+02
1.2500021606e+02
1.2500007060e+02
1.2500002272e+02
1.2500000720e+02
1.2500000225e+02
1.2500000069e+02
1.2500000021e+02
1.2500000007e+02
1.2500000003e+02
9.9999999972e+02
9.9999999944e+02
9.9999999854e+02
9.9999999607e+02
9.9999998950e+02
9.9999997250e+02
9.9999992962e+02
9.9999982421e+02
9.9999957185e+02
9.9999898389e+02
9.9999765145e+02
9.9999471655e+02
9.9998843772e+02
9.9997540108e+02
9.9994915312e+02
9.9989795078e+02
9.9980126811e+02
9.9962472251e+02
9.9931327008e+02
9.9878295252e+02
9.9791219293e+02
9.9653454098e+02
9.9443557063e+02
9.9135686821e+02
9.8700924362e+02
9.8109528940e+02
9.7333863579e+02
9.6351472578e+02
9.5147683065e+02
9.3717198560e+02
9.2064422320e+02
9.0202578973e+02
8.8151966139e+02
8.5937785610e+02
8.3587974969e+02
8.1131338788e+02
7.8596131180e+02
7.6009117912e+02
7.3395067382e+02
7.0776584223e+02
6.8174194608e+02
6.5606604527e+02
6.3091070000e+02
6.0643833951e+02
5.8280593344e+02
5.6016958389e+02
5.3868849142e+02
5.1852739548e+02
4.9985603383e+02
4.8284348610e+02
4.6764476908e+02
4.5437736567e+02
4.4308733775e+02
4.3370869268e+02
4.2602451780e+02
4.1964565741e+02
4.1401836087e+02
4.0846290802e+02
4.0226833552e+02
3.9481017512e+02
3.8567722418e+02
3.7476844304e+02
3.6232219520e+02
3.4886321117e+02
3.3508553668e+02
3.2171194523e+02
3.0937107841e+02
2.9851825304e+02
2.8940802792e+02
2.8211592432e+02
2.7659950946e+02
2.7276292412e+02
2.7041222072e+02
2.6888932013e+02
2.6630012401e+02
2.5901848646e+02
2.4300637542e+02
2.1740890031e+02
1.8713391072e+02
1.6023816648e+02
1.4198114590e+02
1.3219008381e+02
1.2779879536e+02
1.2603954082e+02
1.2537649987e+02
1.2513428805e+02
1.2504733888e+02
1.2501650585e+02
1.2500569030e+02
1.2500193809e+02
1.2500065159e+02
1.2500021606e+02
1.2500007060e+02
1.2500002272e+02
1.2500000720e+02
1.2500000225e+02
1.2500000069e+02
1.2500000021e+02
1.2500000007e+02
1.2500000003e+02

SCALARS molarDensity float
LOOKUP_TABLE default
1.2977624129e+05
1.2977624125e+05
1.2977624114e+05
1.2977624082e+05
1.2977623996e+05
1.2977623776e+05
1.2977623219e+05
1.2977621851e+05
1.2977618576e+05
1.2977610946e+05
1.2977593654e+05
1.2977555566e+05
1.2977474082e+05
1.2977304897e+05
1.2976964261e+05
1.2976299776e+05
1.2975045065e+05
1.2972753922e+05
1.2968712010e+05
1.2961829748e+05
1.2950529357e+05
1.2932650708e+05
1.2905411060e+05
1.2865456817e+05
1.2809034979e+05
1.2732285904e+05
1.2631622969e+05
1.2504131958e+05
1.2347908679e+05
1.2162265777e+05
1.1947774689e+05
1.1706151657e+05
1.1440030831e+05
1.1152682804e+05
1.0847733212e+05
1.0528920202e+05
1.0199910487e+05
9.8641776292e+04
9.5249359768e+04
9.1851190745e+04
8.8473907317e+04
8.5141785417e+04
8.1877219259e+04
7.8701288298e+04
7.5634363464e+04
7.2696703103e+04
6.9908967663e+04
6.7292536411e+04
6.4869437274e+04
6.2661612776e+04
6.0689180408e+04
5.8967386661e+04
5.7502209272e+04
5.6285083967e+04
5.5287860633e+04
5.4460036108e+04
5.3729746714e+04
5.3008780925e+04
5.2204872589e+04
5.1236980565e+04
5.0051740519e+04
4.8636039906e+04
4.7020812643e+04
4.5274156283e+04
4.3486141474e+04
4.1750567041e+04
4.0149015731e+04
3.8740576847e+04
3.7558286073e+04
3.6611944276e+04
3.5896044690e+04
3.5398147065e+04
3.5093081613e+04
3.4895445299e+04
3.4559429159e+04
3.3614445607e+04
3.1536454021e+04
2.8214509914e+04
2.4285535558e+04
2.0795106963e+04
1.8425779455e+04
1.7155132218e+04
1.6585247308e+04
1.6356937866e+04
1.6270890903e+04
1.6239457564e+04
1.6228173627e+04
1.6224172233e+04
1.6222768632e+04
1.6222281683e+04
1.6222114726e+04
1.6222058205e+04
1.6222039329e+04
1.6222033115e+04
1.6222031100e+04
1.6222030457e+04
1.6222030256e+04
1.6222030193e+04
1.6222030175e+04
1.6222030170e+04
1.2977624129e+05
1.2977624125e+05
1.2977624114e+05
1.2977624082e+05
1.2977623996e+05
1.2977623776e+05
1.2977623219e+05
1.2977621851e+05
1.2977618576e+05
1.2977610946e+05
1.2977593654e+05
1.2977555566e+05
1.2977474082e+05
1.2977304897e+05
1.2976964261e+05
1.2976299776e+05
1.2975045065e+05
1.2972753922e+05
1.2968712010e+05
1.2961829748e+05
1.2950529357e+05
1.2932650708e+05
1.2905411060e+05
1.2865456817e+05
1.2809034979e+05
1.2732285904e+05
1.2631622969e+05
1.2504131958e+05
1.2347908679e+05
1.2162265777e+05
1.1947774689e+05
1.1706151657e+05
1.1440030831e+05
1.1152682804e+05
1.0847733212e+05
1.0528920202e+05
1.0199910487e+05
9.8641776292e+04
9.5249359768e+04
9.1851190745e+04
8.8473907317e+04
8.5141785417e+04
8.1877219259e+04
7.8701288298e+04
7.5634363464e+04
7.2696703103e+04
6.9908967663e+04
6.7292536411e+04
6.4869437274e+04
6.2661612776e+04
6.0689180408e+04
5.8967386661e+04
5.7502209272e+04
5.6285083967e+04
5.5287860633e+04
5.4460036108e+04
5.3729746714e+04
5.3008780925e+04
5.2204872589e+04
5.1236980565e+04
5.0051740519e+04
4.8636039906e+04
4.7020812643e+04
4.5274156283e+04
4.3486141474e+04
4.1750567041e+04
4.0149015731e+04
3.8740576847e+04
3.7558286073e+04