# vtk DataFile Version 2.0
Blank
ASCII
DATASET STRUCTURED_GRID
DIMENSIONS 101 11 2
POINTS 2222 float
0.0000000000e+00 0.0000000000e+00 0.0000000000e+00
1.0000000000e-02 0.0000000000e+00 0.0000000000e+00
2.0000000000e-02 0.0000000000e+00 0.0000000000e+00
3.0000000000e-02 0.0000000000e+00 0.0000000000e+00
4.0000000000e-02 0.0000000000e+00 0.0000000000e+00
5.0000000000e-02 0.0000000000e+00 0.0000000000e+00
6.0000000000e-02 0.0000000000e+00 0.0000000000e+00
7.0000000000e-02 0.0000000000e+00 0.0000000000e+00
8.0000000000e-02 0.0000000000e+00 0.0000000000e+00
9.0000000000e-02 0.0000000000e+00 0.0000000000e+00
1.0000000000e-01 0.0000000000e+00 0.0000000000e+00
1.1000000000e-01 0.0000000000e+00 0.0000000000e+00
1.2000000000e-01 0.0000000000e+00 0.0000000000e+00
1.3000000000e-01 0.0000000000e+00 0.0000000000e+00
1.4000000000e-01 0.0000000000e+00 0.0000000000e+00
1.5000000000e-01 0.0000000000e+00 0.0000000000e+00
1.6000000000e-01 0.0000000000e+00 0.0000000000e+00
1.7000000000e-01 0.0000000000e+00 0.0000000000e+00
1.8000000000e-01 0.0000000000e+00 0.0000000000e+00
1.9000000000e-01 0.0000000000e+00 0.0000000000e+00
2.0000000000e-01 0.0000000000e+00 0.0000000000e+00
2.1000000000e-01 0.0000000000e+00 0.0000000000e+00
2.2000000000e-01 0.0000000000e+00 0.0000000000e+00
2.3000000000e-01 0.0000000000e+00 0.0000000000e+00
2.4000000000e-01 0.0000000000e+00 0.0000000000e+00
2.5000000000e-01 0.0000000000e+00 0.0000000000e+00
2.6000000000e-01 0.0000000000e+00 0.0000000000e+00
2.7000000000e-01 0.0000000000e+00 0.0000000000e+00
2.8000000000e-01 0.0000000000e+00 0.0000000000e+00
2.9000000000e-01 0.0000000000e+00 0.0000000000e+00
3.0000000000e-01 0.0000000000e+00 0.0000000000e+00
3.1000000000e-01 0.0000000000e+00 0.0000000000e+00
3.2000000000e-01 0.0000000000e+00 0.0000000000e+00
3.3000000000e-01 0.0000000000e+00 0.0000000000e+00
3.4000000000e-01 0.0000000000e+00 0.0000000000e+00
3.5000000000e-01 0.0000000000e+00 0.0000000000e+00
3.6000000000e-01 0.0000000000e+00 0.0000000000e+00
3.7000000000e-01 0.0000000000e+00 0.0000000000e+00
3.8000000000e-01 0.0000000000e+00 0.0000000000e+00
3.9000000000e-01 0.0000000000e+00 0.0000000000e+00
4.0000000000e-01 0.0000000000e+00 0.0000000000e+00
4.1000000000e-01 0.0000000000e+00 0.0000000000e+00
4.2000000000e-01 0.0000000000e+00 0.0000000000e+00
4.3000000000e-01 0.0000000000e+00 0.0000000000e+00
4.4000000000e-01 0.0000000000e+00 0.0000000000e+00
4.5000000000e-01 0.0000000000e+00 0.0000000000e+00
4.6000000000e-01 0.0000000000e+00 0.0000000000e+00
4.7000000000e-01 0.0000000000e+00 0.0000000000e+00
4.8000000000e-01 0.0000000000e+00 0.0000000000e+00
4.9000000000e-01 0.0000000000e+00 0.0000000000e+00
5.0000000000e-01 0.0000000000e+00 0.0000000000e+00
5.1000000000e-01 0.0000000000e+00 0.0000000000e+00
5.2000000000e-01 0.0000000000e+00 0.0000000000e+00
5.3000000000e-01 0.0000000000e+00 0.0000000000e+00
5.4000000000e-01 0.0000000000e+00 0.0000000000e+00
5.5000000000e-01 0.0000000000e+00 0.0000000000e+00
5.6000000000e-01 0.0000000000e+00 0.0000000000e+00
5.7000000000e-01 0.0000000000e+00 0.0000000000e+00
5.8000000000e-01 0.0000000000e+00 0.0000000000e+00
5.9000000000e-01 0.0000000000e+00 0.0000000000e+00
6.0000000000e-01 0.0000000000e+00 0.0000000000e+00
6.1000000000e-01 0.0000000000e+00 0.0000000000e+00
6.2000000000e-01 0.0000000000e+00 0.0000000000e+00
6.3000000000e-01 0.0000000000e+00 0.0000000000e+00
6.4000000000e-01 0.0000000000e+00 0.0000000000e+00
6.5000000000e-01 0.0000000000e+00 0.0000000000e+00
6.6000000000e-01 0.0000000000e+00 0.0000000000e+00
6.7000000000e-01 0.0000000000e+00 0.0000000000e+00
6.8000000000e-01 0.0000000000e+00 0.0000000000e+00
6.9000000000e-01 0.0000000000e+00 0.0000000000e+00
7.0000000000e-01 0.0000000000e+00 0.0000000000e+00
7.1000000000e-01 0.0000000000e+00 0.0000000000e+00
7.2000000000e-01 0.0000000000e+00 0.0000000000e+00
7.3000000000e-01 0.0000000000e+00 0.0000000000e+00
7.4000000000e-01 0.0000000000e+00 0.0000000000e+00
7.5000000000e-01 0.0000000000e+00 0.0000000000e+00
7.6000000000e-01 0.0000000000e+00 0.0000000000e+00
7.7000000000e-01 0.0000000000e+00 0.0000000000e+00
7.8000000000e-01 0.0000000000e+00 0.0000000000e+00
7.9000000000e-01 0.0000000000e+00 0.0000000000e+00
8.0000000000e-01 0.0000000000e+00 0.0000000000e+00
8.1000000000e-01 0.0000000000e+00 0.0000000000e+00
8.2000000000e-01 0.0000000000e+00 0.0000000000e+00
8.3000000000e-01 0.0000000000e+00 0.0000000000e+00
8.4000000000e-01 0.0000000000e+00 0.0000000000e+00
8.5000000000e-01 0.0000000000e+00 0.0000000000e+00
8.6000000000e-01 0.0000000000e+00 0.0000000000e+00
8.7000000000e-01 0.0000000000e+00 0.0000000000e+00
8.8000000000e-01 0.0000000000e+00 0.0000000000e+00
8.9000000000e-01 0.0000000000e+00 0.0000000000e+00
9.0000000000e-01 0.0000000000e+00 0.0000000000e+00
9.1000000000e-01 0.0000000000e+00 0.0000000000e+00
9.2000000000e-01 0.0000000000e+00 0.0000000000e+00
9.3000000000e-01 0.0000000000e+00 0.0000000000e+00
9.4000000000e-01 0.0000000000e+00 0.0000000000e+00
9.5000000000e-01 0.0000000000e+00 0.0000000000e+00
9.6000000000e-01 0.0000000000e+00 0.0000000000e+00
9.7000000000e-01 0.0000000000e+00 0.0000000000e+00
9.8000000000e-01 0.0000000000e+00 0.0000000000e+00
9.9000000000e-01 0.0000000000e+00 0.0000000000e+00
1.0000000000e+00 0.0000000000e+00 0.0000000000e+00
0.0000000000e+00 1.0000000000e-03 0.0000000000e+00
1.0000000000e-02 1.0000000000e-03 0.0000000000e+00
2.0000000000e-02 1.0000000000e-03 0.0000000000e+00
3.0000000000e-02 1.0000000000e-03 0.0000000000e+00
4.0000000000e-02 1.0000000000e-03 0.0000000000e+00
5.0000000000e-02 1.0000000000e-03 0.0000000000e+00
6.0000000000e-02 1.0000000000e-03 0.0000000000e+00
7.0000000000e-02 1.0000000000e-03 0.0000000000e+00
8.0000000000e-02 1.0000000000e-03 0.0000000000e+00
9.0000000000e-02 1.0000000000e-03 0.0000000000e+00
1.0000000000e-01 1.0000000000e-03 0.0000000000e+00
1.1000000000e-01 1.0000000000e-03 0.0000000000e+00
1.2000000000e-01 1.0000000000e-03 0.0000000000e+00
1.3000000000e-01 1.0000000000e-03 0.0000000000e+00
1.4000000000e-01 1.0000000000e-03 0.0000000000e+00
1.5000000000e-01 1.0000000000e-03 0.0000000000e+00
1.6000000000e-01 1.0000000000e-03 0.0000000000e+00
1.7000000000e-01 1.0000000000e-03 0.0000000000e+00
1.8000000000e-01 1.0000000000e-03 0.0000000000e+00
1.9000000000e-01 1.0000000000e-03 0.0000000000e+00
2.0000000000e-01 1.0000000000e-03 0.0000000000e+00
2.1000000000e-01 1.0000000000e-03 0.0000000000e+00
2.2000000000e-01 1.0000000000e-03 0.0000000000e+00
2.3000000000e-01 1.0000000000e-03 0.0000000000e+00
2.4000000000e-01 1.0000000000e-03 0.0000000000e+00
2.5000000000e-01 1.0000000000e-03 0.0000000000e+00
2.6000000000e-01 1.0000000000e-03 0.0000000000e+00
2.7000000000e-01 1.0000000000e-03 0.0000000000e+00
2.8000000000e-01 1.0000000000e-03 0.0000000000e+00
2.9000000000e-01 1.0000000000e-03 0.0000000000e+00
3.0000000000e-01 1.0000000000e-03 0.0000000000e+00
3.1000000000e-01 1.0000000000e-03 0.0000000000e+00
3.2000000000e-01 1.0000000000e-03 0.0000000000e+00
3.3000000000e-01 1.0000000000e-03 0.0000000000e+00
3.4000000000e-01 1.0000000000e-03 0.0000000000e+00
3.5000000000e-01 1.0000000000e-03 0.0000000000e+00
3.6000000000e-01 1.0000000000e-03 0.0000000000e+00
3.7000000000e-01 1.0000000000e-03 0.0000000000e+00
3.8000000000e-01 1.0000000000e-03 0.0000000000e+00
3.9000000000e-01 1.0000000000e-03 0.0000000000e+00
4.0000000000e-01 1.0000000000e-03 0.0000000000e+00
4.1000000000e-01 1.0000000000e-03 0.0000000000e+00
4.2000000000e-01 1.0000000000e-03 0.0000000000e+00
4.3000000000e-01 1.0000000000e-03 0.0000000000e+00
4.4000000000e-01 1.0000000000e-03 0.0000000000e+00
4.5000000000e-01 1.0000000000e-03 0.0000000000e+00
4.6000000000e-01 1.0000000000e-03 0.0000000000e+00
4.7000000000e-01 1.0000000000e-03 0.0000000000e+00
4.8000000000e-01 1.0000000000e-03 0.0000000000e+00
4.9000000000e-01 1.0000000000e-03 0.0000000000e+00
5.0000000000e-01 1.0000000000e-03 0.0000000000e+00
5.1000000000e-01 1.0000000000e-03 0.0000000000e+00
5.2000000000e-01 1.0000000000e-03 0.0000000000e+00
5.3000000000e-01 1.0000000000e-03 0.0000000000e+00
5.4000000000e-01 1.0000000000e-03 0.0000000000e+00
5.5000000000e-01 1.0000000000e-03 0.0000000000e+00
5.6000000000e-01 1.0000000000e-03 0.0000000000e+00
5.7000000000e-01 1.0000000000e-03 0.0000000000e+00
5.8000000000e-01 1.0000000000e-03 0.0000000000e+00
5.9000000000e-01 1.0000000000e-03 0.0000000000e+00
6.0000000000e-01 1.0000000000e-03 0.0000000000e+00
6.1000000000e-01 1.0000000000e-03 0.0000000000e+00
6.2000000000e-01 1.0000000000e-03 0.0000000000e+00
6.3000000000e-01 1.0000000000e-03 0.0000000000e+00
6.4000000000e-01 1.0000000000e-03 0.0000000000e+00
6.5000000000e-01 1.0000000000e-03 0.0000000000e+00
6.6000000000e-01 1.0000000000e-03 0.0000000000e+00
6.7000000000e-01 1.0000000000e-03 0.0000000000e+00
6.8000000000e-01 1.0000000000e-03 0.0000000000e+00
6.9000000000e-01 1.0000000000e-03 0.0000000000e+00
7.0000000000e-01 1.0000000000e-03 0.0000000000e+00
7.1000000000e-01 1.0000000000e-03 0.0000000000e+00
7.2000000000e-01 1.0000000000e-03 0.0000000000e+00
7.3000000000e-01 1.0000000000e-03 0.0000000000e+00
7.4000000000e-01 1.0000000000e-03 0.0000000000e+00
7.5000000000e-01 1.0000000000e-03 0.0000000000e+00
7.6000000000e-01 1.0000000000e-03 0.0000000000e+00
7.7000000000e-01 1.0000000000e-03 0.0000000000e+00
7.8000000000e-01 1.0000000000e-03 0.0000000000e+00
7.9000000000e-01 1.0000000000e-03 0.0000000000e+00
8.0000000000e-01 1.0000000000e-03 0.0000000000e+00
8.1000000000e-01 1.0000000000e-03 0.0000000000e+00
8.2000000000e-01 1.0000000000e-03 0.0000000000e+00
8.3000000000e-01 1.0000000000e-03 0.0000000000e+00
8.4000000000e-01 1.0000000000e-03 0.0000000000e+00
8.5000000000e-01 1.0000000000e-03 0.0000000000e+00
8.6000000000e-01 1.0000000000e-03 0.0000000000e+00
8.7000000000e-01 1.0000000000e-03 0.0000000000e+00
8.8000000000e-01 1.0000000000e-03 0.0000000000e+00
8.9000000000e-01 1.0000000000e-03 0.0000000000e+00
9.0000000000e-01 1.0000000000e-03 0.0000000000e+00
9.1000000000e-01 1.0000000000e-03 0.0000000000e+00
9.2000000000e-01 1.0000000000e-03 0.0000000000e+00
[...]
CELL_DATA 1000

SCALARS massDensity float
LOOKUP_TABLE default
9.9999999996e+02
9.9999999996e+02
9.9999999996e+02
9.9999999996e+02
9.9999999996e+02
9.9999999996e+02
9.9999999996e+02
9.9999999996e+02
9.9999999996e+02
9.9999999995e+02
9.9999999993e+02
9.9999999986e+02
9.9999999962e+02
9.9999999881e+02
9.9999999615e+02
9.9999998775e+02
9.9999996206e+02
9.9999988612e+02
9.9999966941e+02
9.9999907286e+02
9.9999749056e+02
9.9999345130e+02
9.9998353974e+02
9.9996019344e+02
9.9990748346e+02
9.9979359470e+02
9.9955849314e+02
9.9909561918e+02
9.9822796024e+02
9.9668197270e+02
9.9406720513e+02
9.8987332626e+02
9.8349641183e+02
9.7429994144e+02
9.6170337963e+02
9.4527777792e+02
9.2482148719e+02
9.0039467203e+02
8.7230635178e+02
8.4106385195e+02
8.0730392855e+02
7.7172491639e+02
7.3503296168e+02
6.9790753320e+02
6.6098536574e+02
6.2485873196e+02
5.9008269392e+02
5.5718528820e+02
5.2667297303e+02
4.9902012611e+02
4.7462627592e+02
4.5372255630e+02
4.3622090498e+02
4.2155322294e+02
4.0865076842e+02
3.9608749671e+02
3.8258722025e+02
3.6749583832e+02
3.5100104324e+02
3.3399277576e+02
3.1769655225e+02
3.0329777056e+02
2.9165217200e+02
2.8293672198e+02
2.7597419632e+02
2.6747086975e+02
2.5268082696e+02
2.2862608723e+02
1.9792652653e+02
1.6826219459e+02
1.4654226716e+02
1.3422635484e+02
1.2855005617e+02
1.2627878143e+02
1.2544254330e+02
1.2514892484e+02
1.2504894527e+02
1.2501572435e+02
1.2500493612e+02
1.2500151297e+02
1.2500045246e+02
1.2500013194e+02
1.2500003750e+02
1.2500001039e+02
1.2500000281e+02
1.2500000074e+02
1.2500000019e+02
1.2500000005e+02
1.2500000002e+02
1.2500000001e+02
1.2500000001e+02
1.2500000000e+02
1.2500000000e+02
1.2500000000e+02
1.2500000000e+02
1.2500000000e+02
1.2500000000e+02
1.2500000000e+02
1.2500000000e+02
1.2500000000e+02
9.9999999996e+02
9.9999999996e+02
9.9999999996e+02
9.9999999996e+02
9.9999999996e+02
9.9999999996e+02
9.9999999996e+02
9.9999999996e+02
9.9999999996e+02
9.9999999995e+02
9.9999999993e+02
9.9999999986e+02
9.9999999962e+02
9.9999999881e+02
9.9999999615e+02
9.9999998775e+02
9.9999996206e+02
9.9999988612e+02
9.9999966941e+02
9.9999907286e+02
9.9999749056e+02
9.9999345130e+02
9.9998353974e+02
9.9996019344e+02
9.9990748346e+02
9.9979359470e+02
9.9955849314e+02
9.9909561918e+02
9.9822796024e+02
9.9668197270e+02
9.9406720513e+02
9.8987332626e+02
9.8349641183e+02
9.7429994144e+02
9.6170337963e+02
9.4527777792e+02
9.2482148719e+02
9.0039467203e+02
8.7230635178e+02
8.4106385195e+02
8.0730392855e+02
7.7172491639e+02
7.3503296168e+02
6.9790753320e+02
6.6098536574e+02
6.2485873196e+02
5.9008269392e+02
5.5718528820e+02
5.2667297303e+02
4.9902012611e+02
4.7462627592e+02
4.5372255630e+02
4.3622090498e+02
4.2155322294e+02
4.0865076842e+02
3.9608749671e+02
3.8258722025e+02
3.6749583832e+02
3.5100104324e+02
3.3399277576e+02
3.1769655225e+02
3.0329777056e+02
2.9165217200e+02
2.8293672198e+02
2.7597419632e+02
2.6747086975e+02
2.5268082696e+02
2.2862608723e+02
1.9792652653e+02
1.6826219459e+02
1.4654226716e+02
1.3422635484e+02
1.2855005617e+02
1.2627878143e+02
1.2544254330e+02
1.2514892484e+02
1.2504894527e+02
1.2501572435e+02
1.2500493612e+02
1.2500151297e+02
1.2500045246e+02
1.2500013194e+02
1.2500003750e+02
1.2500001039e+02
1.2500000281e+02
1.2500000074e+02
1.2500000019e+02
1.2500000005e+02
1.2500000002e+02
1.2500000001e+02
1.2500000001e+02
1.2500000000e+02
1.2500000000e+02
1.2500000000e+02
1.2500000000e+02
1.2500000000e+02
1.2500000000e+02
1.2500000000e+02
1.2500000000e+02
1.2500000000e+02
9.9999999996e+02
9.9999999996e+02
9.9999999996e+02
9.9999999996e+02
9.9999999996e+02
9.9999999996e+02
9.9999999996e+02
9.9999999996e+02
9.9999999996e+02
9.9999999995e+02
9.9999999993e+02
9.9999999986e+02
9.9999999962e+02
9.9999999881e+02
9.9999999615e+02
9.9999998775e+02
9.9999996206e+02
9.9999988612e+02
9.9999966941e+02
9.9999907286e+02
9.9999749056e+02
9.9999345130e+02
9.9998353974e+02
9.9996019344e+02
9.9990748346e+02
9.9979359470e+02
9.9955849314e+02
9.9909561918e+02
9.9822796024e+02
9.9668197270e+02
9.9406720513e+02
9.8987332626e+02
9.8349641183e+02
9.7429994144e+02
9.6170337963e+02
9.4527777792e+02
9.2482148719e+02
9.0039467203e+02
8.7230635178e+02
8.4106385195e+02
8.0730392855e+02
7.7172491639e+02
7.3503296168e+02
6.9790753320e+02
6.6098536574e+02
6.2485873196e+02
5.9008269392e+02
5.5718528820e+02
5.2667297303e+02
4.9902012611e+02
4.7462627592e+02
4.5372255630e+02
4.3622090498e+02
4.2155322294e+02
4.0865076842e+02
3.9608749671e+02
3.8258722025e+02
3.6749583832e+02
3.5100104324e+02
3.3399277576e+02
3.1769655225e+02
3.0329777056e+02
2.9165217200e+02
2.8293672198e+02
2.7597419632e+02
2.6747086975e+02
2.5268082696e+02
2.2862608723e+02
1.9792652653e+02
1.6826219459e+02
1.4654226716e+02
1.3422635484e+02
1.2855005617e+02
1.2627878143e+02
1.2544254330e+02
1.2514892484e+02
1.2504894527e+02
1.2501572435e+02
1.2500493612e+02
1.2500151297e+02
1.2500045246e+02
1.2500013194e+02
1.2500003750e+02
1.2500001039e+02
1.2500000281e+02
1.2500000074e+02
1.2500000019e+02
1.2500000005e+02
1.2500000002e+02
1.2500000001e+02
1.2500000001e+02
1.2500000000e+02
1.2500000000e+02
1.2500000000e+02
1.2500000000e+02
1.2500000000e+02
1.2500000000e+02
1.2500000000e+02
1.2500000000e+02
1.2500000000e+02
9.9999999996e+02
9.9999999996e+02
9.9999999996e+02
9.9999999996e+02
9.9999999996e+02
9.9999999996e+02
9.9999999996e+02
9.9999999996e+02
9.9999999996e+02
9.9999999995e+02
9.9999999993e+02
9.9999999986e+02
9.9999999962e+02
9.9999999881e+02
9.9999999615e+02
9.9999998775e+02
9.9999996206e+02
9.9999988612e+02
9.9999966941e+02
9.9999907286e+02
9.9999749056e+02
9.9999345130e+02
9.9998353974e+02
9.9996019344e+02
9.9990748346e+02
9.9979359470e+02
9.9955849314e+02
9.9909561918e+02
9.9822796024e+02
9.9668197270e+02
9.9406720513e+02
9.8987332626e+02
9.8349641183e+02
9.7429994144e+02
9.6170337963e+02
9.4527777792e+02
9.2482148719e+02
9.0039467203e+02
8.7230635178e+02
8.4106385195e+02
8.0730392855e+02
7.7172491639e+02
7.3503296168e+02
6.9790753320e+02
6.6098536574e+02
6.2485873196e+02
5.9008269392e+02
5.5718528820e+02
5.2667297303e+02
4.9902012611e+02
4.7462627592e+02
4.5372255630e+02
4.3622090498e+02
4.2155322294e+02
4.0865076842e+02
3.9608749671e+02
3.8258722025e+02
3.6749583832e+02
3.5100104324e+02
3.3399277576e+02
3.1769655225e+02
3.0329777056e+02
2.9165217200e+02
2.8293672198e+02
2.7597419632e+02
2.6747086975e+02
2.5268082696e+02
2.2862608723e+02
1.9792652653e+02
1.6826219459e+02
1.4654226716e+02
1.3422635484e+02
1.2855005617e+02
1.2627878143e+02
1.2544254330e+02
1.2514892484e+02
1.2504894527e+02
1.2501572435e+02
1.2500493612e+02
1.2500151297e+02
1.2500045246e+02
1.2500013194e+02
1.2500003750e+02
1.2500001039e+02
1.2500000281e+02
1.2500000074e+02
1.2500000019e+02
1.2500000005e+02
1.2500000002e+02
1.2500000001e+02
1.2500000001e+02
1.2500000000e+02
1.2500000000e+02
1.2500000000e+02
1.2500000000e+02
1.2500000000e+02
1.2500000000e+02
1.2500000000e+02
1.2500000000e+02
1.2500000000e+02
9.9999999996e+02
9.9999999996e+02
9.9999999996e+02
9.9999999996e+02
9.9999999996e+02
9.9999999996e+02
9.9999999996e+02
9.9999999996e+02
9.9999999996e+02
9.9999999995e+02
9.9999999993e+02
9.9999999986e+02
9.9999999962e+02
9.9999999881e+02
9.9999999615e+02
9.9999998775e+02
9.9999996206e+02
9.9999988612e+02
9.9999966941e+02
9.9999907286e+02
9.9999749056e+02
9.9999345130e+02
9.9998353974e+02
9.9996019344e+02
9.9990748346e+02
9.9979359470e+02
9.9955849314e+02
9.9909561918e+02
9.9822796024e+02
9.9668197270e+02
9.9406720513e+02
9.8987332626e+02
9.8349641183e+02
9.7429994144e+02
9.6170337963e+02
9.4527777792e+02
9.2482148719e+02
9.0039467203e+02
8.7230635178e+02
8.4106385195e+02
8.0730392855e+02
7.7172491639e+02
7.3503296168e+02
6.9790753320e+02
6.6098536574e+02
6.2485873196e+02
5.9008269392e+02
5.5718528820e+02
5.2667297303e+02
4.9902012611e+02
4.7462627592e+02
4.5372255630e+02
4.3622090498e+02
4.2155322294e+02
4.0865076842e+02
3.9608749671e+02
3.8258722025e+02
3.6749583832e+02
3.5100104324e+02
3.3399277576e+02
3.1769655225e+02
3.0329777056e+02
2.9165217200e+02
2.8293672198e+02
2.7597419632e+02
2.6747086975e+02
2.5268082696e+02
2.2862608723e+02
1.9792652653e+02
1.6826219459e+02
1.4654226716e+02
1.3422635484e+02
1.2855005617e+02
1.2627878143e+02
1.2544254330e+02
1.2514892484e+02
1.2504894527e+02
1.2501572435e+02
1.2500493612e+02
1.2500151297e+02
1.2500045246e+02
1.2500013194e+02
1.2500003750e+02
1.2500001039e+02
1.2500000281e+02
1.2500000074e+02
1.2500000019e+02
1.2500000005e+02
1.2500000002e+02
1.2500000001e+02
1.2500000001e+02
1.2500000000e+02
1.2500000000e+02
1.2500000000e+02
1.2500000000e+02
1.2500000000e+02
1.2500000000e+02
1.2500000000e+02
1.2500000000e+02
1.2500000000e+02
9.9999999996e+02
9.9999999996e+02
9.9999999996e+02
9.9999999996e+02
9.9999999996e+02
9.9999999996e+02
9.9999999996e+02
9.9999999996e+02
9.9999999996e+02
9.9999999995e+02
9.9999999993e+02
9.9999999986e+02
9.9999999962e+02
9.9999999881e+02
9.9999999615e+02
9.9999998775e+02
9.9999996206e+02
9.9999988612e+02
9.9999966941e+02
9.9999907286e+02
9.9999749056e+02
9.9999345130e+02
9.9998353974e+02
9.9996019344e+02
9.9990748346e+02
9.9979359470e+02
9.9955849314e+02
9.9909561918e+02
9.9822796024e+02
9.9668197270e+02
9.9406720513e+02
9.8987332626e+02
9.8349641183e+02
9.7429994144e+02
9.6170337963e+02
9.4527777792e+02
9.2482148719e+02
9.0039467203e+02
8.7230635178e+02
8.4106385195e+02
8.0730392855e+02
7.7172491639e+02
7.3503296168e+02
6.9790753320e+02
6.6098536574e+02
6.2485873196e+02
5.9008269392e+02
5.5718528820e+02
5.2667297303e+02
4.9902012611e+02
4.7462627592e+02
4.5372255630e+02
4.3622090498e+02
4.2155322294e+02
4.0865076842e+02
3.9608749671e+02
3.8258722025e+02
3.6749583832e+02
3.5100104324e+02
3.3399277576e+02
3.1769655225e+02
3.0329777056e+02
2.9165217200e+02
2.8293672198e+02
2.7597419632e+02
2.6747086975e+02
2.5268082696e+02
2.2862608723e+02
1.9792652653e+02
1.6826219459e+02
1.4654226716e+02
1.3422635484e+02
1.2855005617e+02
1.2627878143e+02
1.2544254330e+02
1.2514892484e+02
1.2504894527e+02
1.2501572435e+02
1.2500493612e+02
1.2500151297e+02
1.2500045246e+02
1.2500013194e+02
1.2500003750e+02
1.2500001039e+02
1.2500000281e+02
1.2500000074e+02
1.2500000019e+02
1.2500000005e+02
1.2500000002e+02
1.2500000001e+02
1.2500000001e+02
1.2500000000e+02
1.2500000000e+02
1.2500000000e+02
1.2500000000e+02
1.2500000000e+02
1.2500000000e+02
1.2500000000e+02
1.2500000000e+02
1.2500000000e+02
9.9999999996e+02
9.9999999996e+02
9.9999999996e+02
9.9999999996e+02
9.9999999996e+02
9.9999999996e+02
9.9999999996e+02
9.9999999996e+02
9.9999999996e+02
9.9999999995e+02
9.9999999993e+02
9.9999999986e+02
9.9999999962e+02
9.9999999881e+02
9.9999999615e+02
9.9999998775e+02
9.9999996206e+02
9.9999988612e+02
9.9999966941e+02
9.9999907286e+02
9.9999749056e+02
9.9999345130e+02
9.9998353974e+02
9.9996019344e+02
9.9990748346e+02
9.9979359470e+02
9.9955849314e+02
9.9909561918e+02
9.9822796024e+02
9.9668197270e+02
9.9406720513e+02
9.8987332626e+02
9.8349641183e+02
9.7429994144e+02
9.6170337963e+02
9.4527777792e+02
9.2482148719e+02
9.0039467203e+02
8.7230635178e+02
8.4106385195e+02
8.0730392855e+02
7.7172491639e+02
7.3503296168e+02
6.9790753320e+02
6.6098536574e+02
6.2485873196e+02
5.9008269392e+02
5.5718528820e+02
5.2667297303e+02
4.9902012611e+02
4.7462627592e+02
4.5372255630e+02
4.3622090498e+02
4.2155322294e+02
4.0865076842e+02
3.9608749671e+02
3.8258722025e+02
3.6749583832e+02
3.5100104324e+02
3.3399277576e+02
3.1769655225e+02
3.0329777056e+02
2.9165217200e+02
2.8293672198e+02
2.7597419632e+02
2.6747086975e+02
2.5268082696e+02
2.2862608723e+02
1.9792652653e+02
1.6826219459e+02
1.4654226716e+02
1.3422635484e+02
1.2855005617e+02
1.2627878143e+02
1.2544254330e+02
1.2514892484e+02
1.2504894527e+02
1.2501572435e+02
1.2500493612e+02
1.2500151297e+02
1.2500045246e+02
1.2500013194e+02
1.2500003750e+02
1.2500001039e+02
1.2500000281e+02
1.2500000074e+02
1.2500000019e+02
1.2500000005e+02
1.2500000002e+02
1.2500000001e+02
1.2500000001e+02
1.2500000000e+02
1.2500000000e+02
1.2500000000e+02
1.2500000000e+02
1.2500000000e+02
1.2500000000e+02
1.2500000000e+02
1.2500000000e+02
1.2500000000e+02
9.9999999996e+02
9.9999999996e+02
9.9999999996e+02
9.9999999996e+02
9.9999999996e+02
9.9999999996e+02
9.9999999996e+02
9.9999999996e+02
9.9999999996e+02
9.9999999995e+02
9.9999999993e+02
9.9999999986e+02
9.9999999962e+02
9.9999999881e+02
9.9999999615e+02
9.9999998775e+02
9.9999996206e+02
9.9999988612e+02
9.9999966941e+02
9.9999907286e+02
9.9999749056e+02
9.9999345130e+02
9.9998353974e+02
9.9996019344e+02
9.9990748346e+02
9.9979359470e+02
9.9955849314e+02
9.9909561918e+02
9.9822796024e+02
9.9668197270e+02
9.9406720513e+02
9.8987332626e+02
9.8349641183e+02
9.7429994144e+02
9.6170337963e+02
9.4527777792e+02
9.2482148719e+02
9.0039467203e+02
8.7230635178e+02
8.4106385195e+02
8.0730392855e+02
7.7172491639e+02
7.3503296168e+02
6.9790753320e+02
6.6098536574e+02
6.2485873196e+02
5.9008269392e+02
5.5718528820e+02
5.2667297303e+02
4.9902012611e+02
4.7462627592e+02
4.5372255630e+02
4.3622090498e+02
4.2155322294e+02
4.0865076842e+02
3.9608749671e+02
3.8258722025e+02
3.6749583832e+02
3.5100104324e+02
3.3399277576e+02
3.1769655225e+02
3.0329777056e+02
2.9165217200e+02
2.8293672198e+02
2.7597419632e+02
2.6747086975e+02
2.5268082696e+02
2.2862608723e+02
1.9792652653e+02
1.6826219459e+02
1.4654226716e+02
1.3422635484e+02
1.2855005617e+02
1.2627878143e+02
1.2544254330e+02
1.2514892484e+02
1.2504894527e+02
1.2501572435e+02
1.2500493612e+02
1.2500151297e+02
1.2500045246e+02
1.2500013194e+02
1.2500003750e+02
1.2500001039e+02
1.2500000281e+02
1.2500000074e+02
1.2500000019e+02
1.2500000005e+02
1.2500000002e+02
1.2500000001e+02
1.2500000001e+02
1.2500000000e+02
1.2500000000e+02
1.2500000000e+02
1.2500000000e+02
1.2500000000e+02
1.2500000000e+02
1.2500000000e+02
1.2500000000e+02
1.2500000000e+02
9.9999999996e+02
9.9999999996e+02
9.9999999996e+02
9.9999999996e+02
9.9999999996e+02
9.9999999996e+02
9.9999999996e+02
9.9999999996e+02
9.9999999996e+02
9.9999999995e+02
9.9999999993e+02
9.9999999986e+02
9.9999999962e+02
9.9999999881e+02
9.9999999615e+02
9.9999998775e+02
9.9999996206e+02
9.9999988612e+02
9.9999966941e+02
9.9999907286e+02
9.9999749056e+02
9.9999345130e+02
9.9998353974e+02
9.9996019344e+02
9.9990748346e+02
9.9979359470e+02
9.9955849314e+02
9.9909561918e+02
9.9822796024e+02
9.9668197270e+02
9.9406720513e+02
9.8987332626e+02
9.8349641183e+02
9.7429994144e+02
9.6170337963e+02
9.4527777792e+02
9.2482148719e+02
9.0039467203e+02
8.7230635178e+02
8.4106385195e+02
8.0730392855e+02
7.7172491639e+02
7.3503296168e+02
6.9790753320e+02
6.6098536574e+02
6.2485873196e+02
5.9008269392e+02
5.5718528820e+02
5.2667297303e+02
4.9902012611e+02
4.7462627592e+02
4.5372255630e+02
4.3622090498e+02
4.2155322294e+02
4.0865076842e+02
3.9608749671e+02
3.8258722025e+02
3.6749583832e+02
3.5100104324e+02
3.3399277576e+02
3.1769655225e+02
3.0329777056e+02
2.9165217200e+02
2.8293672198e+02
2.7597419632e+02
2.6747086975e+02
2.5268082696e+02
2.2862608723e+02
1.9792652653e+02
1.6826219459e+02
1.4654226716e+02
1.3422635484e+02
1.2855005617e+02
1.2627878143e+02
1.2544254330e+02
1.2514892484e+02
1.2504894527e+02
1.2501572435e+02
1.2500493612e+02
1.2500151297e+02
1.2500045246e+02
1.2500013194e+02
1.2500003750e+02
1.2500001039e+02
1.2500000281e+02
1.2500000074e+02
1.2500000019e+02
1.2500000005e+02
1.2500000002e+02
1.2500000001e+02
1.2500000001e+02
1.2500000000e+02
1.2500000000e+02
1.2500000000e+02
1.2500000000e+02
1.2500000000e+02
1.2500000000e+02
1.2500000000e+02
1.2500000000e+02
1.2500000000e+02
9.9999999996e+02
9.9999999996e+02
9.9999999996e+02
9.9999999996e+02
9.9999999996e+02
9.9999999996e+02
9.9999999996e+02
9.9999999996e+02
9.9999999996e+02
9.9999999995e+02
9.9999999993e+02
9.9999999986e+02
9.9999999962e+02
9.9999999881e+02
9.9999999615e+02
9.9999998775e+02
9.9999996206e+02
9.9999988612e+02
9.9999966941e+02
9.9999907286e+02
9.9999749056e+02
9.9999345130e+02
9.9998353974e+02
9.9996019344e+02
9.9990748346e+02
9.9979359470e+02
9.9955849314e+02
9.9909561918e+02
9.9822796024e+02
9.9668197270e+02
9.9406720513e+02
9.8987332626e+02
9.8349641183e+02
9.7429994144e+02
9.6170337963e+02
9.4527777792e+02
9.2482148719e+02
9.0039467203e+02
8.7230635178e+02
8.4106385195e+02
8.0730392855e+02
7.7172491639e+02
7.3503296168e+02
6.9790753320e+02
6.6098536574e+02
6.2485873196e+02
5.9008269392e+02
5.5718528820e+02
5.2667297303e+02
4.9902012611e+02
4.7462627592e+02
4.5372255630e+02
4.3622090498e+02
4.2155322294e+02
4.0865076842e+02
3.9608749671e+02
3.8258722025e+02
3.6749583832e+02
3.5100104324e+02
3.3399277576e+02
3.1769655225e+02
3.0329777056e+02
2.9165217200e+02
2.8293672198e+02
2.7597419632e+02
2.6747086975e+02
2.5268082696e+02
2.2862608723e+02
1.9792652653e+02
1.6826219459e+02
1.4654226716e+02
1.3422635484e+02
1.2855005617e+02
1.2627878143e+02
1.2544254330e+02
1.2514892484e+02
1.2504894527e+02
1.2501572435e+02
1.2500493612e+02
1.2500151297e+02
1.2500045246e+02
1.2500013194e+02
1.2500003750e+02
1.2500001039e+02
1.2500000281e+02
1.2500000074e+02
1.2500000019e+02
1.2500000005e+02
1.2500000002e+02
1.2500000001e+02
1.2500000001e+02
1.2500000000e+02
1.2500000000e+02
1.2500000000e+02
1.2500000000e+02
1.2500000000e+02
1.2500000000e+02
1.2500000000e+02
1.2500000000e+02
1.2500000000e+02

SCALARS molarDensity float
LOOKUP_TABLE default
1.2977624132e+05
1.2977624132e+05
1.2977624132e+05
1.2977624132e+05
1.2977624132e+05
1.2977624132e+05
1.2977624132e+05
1.2977624132e+05
1.2977624132e+05
1.2977624132e+05
1.2977624132e+05
1.2977624131e+05
1.2977624128e+05
1.2977624117e+05
1.2977624083e+05
1.2977623974e+05
1.2977623640e+05
1.2977622655e+05
1.2977619842e+05
1.2977612101e+05
1.2977591566e+05
1.2977539146e+05
1.2977410518e+05
1.2977107538e+05
1.2976423488e+05
1.2974945482e+05
1.2971894423e+05
1.2965887418e+05
1.2954627267e+05
1.2934564021e+05
1.2900630551e+05
1.2846203967e+05
1.2763446769e+05
1.2644098433e+05
1.2480624988e+05
1.2267459703e+05
1.2001985651e+05
1.1684983625e+05
1.1320463962e+05
1.0915010542e+05
1.0476886946e+05
1.0015155899e+05
9.5389815018e+04
9.0571816453e+04
8.5780196337e+04
8.1091817594e+04
7.6578714089e+04
7.2309412425e+04
6.8349638848e+04
6.4760956313e+04
6.1595214123e+04
5.8882407962e+04
5.6611109437e+04
5.4707592793e+04
5.3033160741e+04
5.1402746560e+04
4.9650731424e+04
4.7692228601e+04
4.5551596094e+04
4.3344327069e+04
4.1229464433e+04
3.9360844666e+04
3.7849522657e+04
3.6718464312e+04
3.5814893902e+04
3.4711364141e+04
3.2791967978e+04
2.9670234269e+04
2.5686160672e+04
2.1836435172e+04
1.9017704627e+04
1.7419391818e+04
1.6682743112e+04
1.6387985613e+04
1.6279461773e+04
1.6241357072e+04
1.6228382099e+04
1.6224070813e+04
1.6222670757e+04
1.6222226513e+04
1.6222088885e+04
1.6222047289e+04
1.6222035033e+04
1.6222031514e+04
1.6222030530e+04
1.6222030262e+04
1.6222030191e+04
1.6222030173e+04
1.6222030168e+04
1.6222030167e+04
1.6222030167e+04
1.6222030167e+04
1.6222030166e+04
1.6222030166e+04
1.6222030166e+04
1.6222030166e+04
1.6222030166e+04
1.6222030166e+04
1.6222030166e+04
1.6222030166e+04
1.2977624132e+05
1.2977624132e+05
1.2977624132e+05
1.2977624132e+05
1.2977624132e+05
1.2977624132e+05
1.2977624132e+05
1.2977624132e+05
1.2977624132e+05
1.2977624132e+05
1.2977624132e+05
1.2977624131e+05
1.2977624128e+05
1.2977624117e+05
1.2977624083e+05
1.2977623974e+05
1.2977623640e+05
1.2977622655e+05
1.2977619842e+05
1.2977612101e+05
1.2977591566e+05
1.2977539146e+05
1.2977410518e+05
1.2977107538e+05
1.2976423488e+05
1.2974945482e+05
1.2971894423e+05
1.2965887418e+05
1.2954627267e+05
1.2934564021e+05
1.2900630551e+05
1.2846203967e+05
1.2763446769e+05
1.2644098433e+05
1.2480624988e+05
1.2267459703e+05
1.2001985651e+05
1.1684983625e+05
1.1320463962e+05
1.0915010542e+05
1.0476886946e+05
1.0015155899e+05
9.5389815018e+04
9.0571816453e+04
8.5780196337e+04
8.1091817594e+04
7.6578714089e+04
7.2309412425e+04
6.8349638848e+04
6.4760956313e+04
6.1595214123e+04
5.8882407962e+04
5.6611109437e+04
5.4707592793e+04
5.3033160741e+04
5.1402746560e+04
4.9650731424e+04
4.7692228601e+04
4.5551596094e+04
4.3344327069e+04
4.1229464433e+04
3.9360844666e+04
3.7849522657e+04
3.6718464312e+04
3.5814893902e+04
3.4711364141e+04
3.2791967978e+04
2.9670234269e+04
2.5686160672e+04