# vtk DataFile Version 2.0
Blank
ASCII
DATASET STRUCTURED_GRID
DIMENSIONS 101 11 2
POINTS 2222 float
0.0000000000e+00 0.0000000000e+00 0.0000000000e+00
1.0000000000e-02 0.0000000000e+00 0.0000000000e+00
2.0000000000e-02 0.0000000000e+00 0.0000000000e+00
3.0000000000e-02 0.0000000000e+00 0.0000000000e+00
4.0000000000e-02 0.0000000000e+00 0.0000000000e+00
5.0000000000e-02 0.0000000000e+00 0.0000000000e+00
6.0000000000e-02 0.0000000000e+00 0.0000000000e+00
7.0000000000e-02 0.0000000000e+00 0.0000000000e+00
8.0000000000e-02 0.0000000000e+00 0.0000000000e+00
9.0000000000e-02 0.0000000000e+00 0.0000000000e+00
1.0000000000e-01 0.0000000000e+00 0.0000000000e+00
1.1000000000e-01 0.0000000000e+00 0.0000000000e+00
1.2000000000e-01 0.0000000000e+00 0.0000000000e+00
1.3000000000e-01 0.0000000000e+00 0.0000000000e+00
1.4000000000e-01 0.0000000000e+00 0.0000000000e+00
1.5000000000e-01 0.0000000000e+00 0.0000000000e+00
1.6000000000e-01 0.0000000000e+00 0.0000000000e+00
1.7000000000e-01 0.0000000000e+00 0.0000000000e+00
1.8000000000e-01 0.0000000000e+00 0.0000000000e+00
1.9000000000e-01 0.0000000000e+00 0.0000000000e+00
2.0000000000e-01 0.0000000000e+00 0.0000000000e+00
2.1000000000e-01 0.0000000000e+00 0.0000000000e+00
2.2000000000e-01 0.0000000000e+00 0.0000000000e+00
2.3000000000e-01 0.0000000000e+00 0.0000000000e+00
2.4000000000e-01 0.0000000000e+00 0.0000000000e+00
2.5000000000e-01 0.0000000000e+00 0.0000000000e+00
2.6000000000e-01 0.0000000000e+00 0.0000000000e+00
2.7000000000e-01 0.0000000000e+00 0.0000000000e+00
2.8000000000e-01 0.0000000000e+00 0.0000000000e+00
2.9000000000e-01 0.0000000000e+00 0.0000000000e+00
3.0000000000e-01 0.0000000000e+00 0.0000000000e+00
3.1000000000e-01 0.0000000000e+00 0.0000000000e+00
3.2000000000e-01 0.0000000000e+00 0.0000000000e+00
3.3000000000e-01 0.0000000000e+00 0.0000000000e+00
3.4000000000e-01 0.0000000000e+00 0.0000000000e+00
3.5000000000e-01 0.0000000000e+00 0.0000000000e+00
3.6000000000e-01 0.0000000000e+00 0.0000000000e+00
3.7000000000e-01 0.0000000000e+00 0.0000000000e+00
3.8000000000e-01 0.0000000000e+00 0.0000000000e+00
3.9000000000e-01 0.0000000000e+00 0.0000000000e+00
4.0000000000e-01 0.0000000000e+00 0.0000000000e+00
4.1000000000e-01 0.0000000000e+00 0.0000000000e+00
4.2000000000e-01 0.0000000000e+00 0.0000000000e+00
4.3000000000e-01 0.0000000000e+00 0.0000000000e+00
4.4000000000e-01 0.0000000000e+00 0.0000000000e+00
4.5000000000e-01 0.0000000000e+00 0.0000000000e+00
4.6000000000e-01 0.0000000000e+00 0.0000000000e+00
4.7000000000e-01 0.0000000000e+00 0.0000000000e+00
4.8000000000e-01 0.0000000000e+00 0.0000000000e+00
4.9000000000e-01 0.0000000000e+00 0.0000000000e+00
5.0000000000e-01 0.0000000000e+00 0.0000000000e+00
5.1000000000e-01 0.0000000000e+00 0.0000000000e+00
5.2000000000e-01 0.0000000000e+00 0.0000000000e+00
5.3000000000e-01 0.0000000000e+00 0.0000000000e+00
5.4000000000e-01 0.0000000000e+00 0.0000000000e+00
5.5000000000e-01 0.0000000000e+00 0.0000000000e+00
5.6000000000e-01 0.0000000000e+00 0.0000000000e+00
5.7000000000e-01 0.0000000000e+00 0.0000000000e+00
5.8000000000e-01 0.0000000000e+00 0.0000000000e+00
5.9000000000e-01 0.0000000000e+00 0.0000000000e+00
6.0000000000e-01 0.0000000000e+00 0.0000000000e+00
6.1000000000e-01 0.0000000000e+00 0.0000000000e+00
6.2000000000e-01 0.0000000000e+00 0.0000000000e+00
6.3000000000e-01 0.0000000000e+00 0.0000000000e+00
6.4000000000e-01 0.0000000000e+00 0.0000000000e+00
6.5000000000e-01 0.0000000000e+00 0.0000000000e+00
6.6000000000e-01 0.0000000000e+00 0.0000000000e+00
6.7000000000e-01 0.0000000000e+00 0.0000000000e+00
6.8000000000e-01 0.0000000000e+00 0.0000000000e+00
6.9000000000e-01 0.0000000000e+00 0.0000000000e+00
7.0000000000e-01 0.0000000000e+00 0.0000000000e+00
7.1000000000e-01 0.0000000000e+00 0.0000000000e+00
7.2000000000e-01 0.0000000000e+00 0.0000000000e+00
7.3000000000e-01 0.0000000000e+00 0.0000000000e+00
7.4000000000e-01 0.0000000000e+00 0.0000000000e+00
7.5000000000e-01 0.0000000000e+00 0.0000000000e+00
7.6000000000e-01 0.0000000000e+00 0.0000000000e+00
7.7000000000e-01 0.0000000000e+00 0.0000000000e+00
7.8000000000e-01 0.0000000000e+00 0.0000000000e+00
7.9000000000e-01 0.0000000000e+00 0.0000000000e+00
8.0000000000e-01 0.0000000000e+00 0.0000000000e+00
8.1000000000e-01 0.0000000000e+00 0.0000000000e+00
8.2000000000e-01 0.0000000000e+00 0.0000000000e+00
8.3000000000e-01 0.0000000000e+00 0.0000000000e+00
8.4000000000e-01 0.0000000000e+00 0.0000000000e+00
8.5000000000e-01 0.0000000000e+00 0.0000000000e+00
8.6000000000e-01 0.0000000000e+00 0.0000000000e+00
8.7000000000e-01 0.0000000000e+00 0.0000000000e+00
8.8000000000e-01 0.0000000000e+00 0.0000000000e+00
8.9000000000e-01 0.0000000000e+00 0.0000000000e+00
9.0000000000e-01 0.0000000000e+00 0.0000000000e+00
9.1000000000e-01 0.0000000000e+00 0.0000000000e+00
9.2000000000e-01 0.0000000000e+00 0.0000000000e+00
9.3000000000e-01 0.0000000000e+00 0.0000000000e+00
9.4000000000e-01 0.0000000000e+00 0.0000000000e+00
9.5000000000e-01 0.0000000000e+00 0.0000000000e+00
9.6000000000e-01 0.0000000000e+00 0.0000000000e+00
9.7000000000e-01 0.0000000000e+00 0.0000000000e+00
9.8000000000e-01 0.0000000000e+00 0.0000000000e+00
9.9000000000e-01 0.0000000000e+00 0.0000000000e+00
1.0000000000e+00 0.0000000000e+00 0.0000000000e+00
0.0000000000e+00 1.0000000000e-03 0.0000000000e+00
1.0000000000e-02 1.0000000000e-03 0.0000000000e+00
2.0000000000e-02 1.0000000000e-03 0.0000000000e+00
3.0000000000e-02 1.0000000000e-03 0.0000000000e+00
4.0000000000e-02 1.0000000000e-03 0.0000000000e+00
5.0000000000e-02 1.0000000000e-03 0.0000000000e+00
6.0000000000e-02 1.0000000000e-03 0.0000000000e+00
7.0000000000e-02 1.0000000000e-03 0.0000000000e+00
8.0000000000e-02 1.0000000000e-03 0.0000000000e+00
9.0000000000e-02 1.0000000000e-03 0.0000000000e+00
1.0000000000e-01 1.0000000000e-03 0.0000000000e+00
1.1000000000e-01 1.0000000000e-03 0.0000000000e+00
1.2000000000e-01 1.0000000000e-03 0.0000000000e+00
1.3000000000e-01 1.0000000000e-03 0.0000000000e+00
1.4000000000e-01 1.0000000000e-03 0.0000000000e+00
1.5000000000e-01 1.0000000000e-03 0.0000000000e+00
1.6000000000e-01 1.0000000000e-03 0.0000000000e+00
1.7000000000e-01 1.0000000000e-03 0.0000000000e+00
1.8000000000e-01 1.0000000000e-03 0.0000000000e+00
1.9000000000e-01 1.0000000000e-03 0.0000000000e+00
2.0000000000e-01 1.0000000000e-03 0.0000000000e+00
2.1000000000e-01 1.0000000000e-03 0.0000000000e+00
2.2000000000e-01 1.0000000000e-03 0.0000000000e+00
2.3000000000e-01 1.0000000000e-03 0.0000000000e+00
2.4000000000e-01 1.0000000000e-03 0.0000000000e+00
2.5000000000e-01 1.0000000000e-03 0.0000000000e+00
2.6000000000e-01 1.0000000000e-03 0.0000000000e+00
2.7000000000e-01 1.0000000000e-03 0.0000000000e+00
2.8000000000e-01 1.0000000000e-03 0.0000000000e+00
2.9000000000e-01 1.0000000000e-03 0.0000000000e+00
3.0000000000e-01 1.0000000000e-03 0.0000000000e+00
3.1000000000e-01 1.0000000000e-03 0.0000000000e+00
3.2000000000e-01 1.0000000000e-03 0.0000000000e+00
3.3000000000e-01 1.0000000000e-03 0.0000000000e+00
3.4000000000e-01 1.0000000000e-03 0.0000000000e+00
3.5000000000e-01 1.0000000000e-03 0.0000000000e+00
3.6000000000e-01 1.0000000000e-03 0.0000000000e+00
3.7000000000e-01 1.0000000000e-03 0.0000000000e+00
3.8000000000e-01 1.0000000000e-03 0.0000000000e+00
3.9000000000e-01 1.0000000000e-03 0.0000000000e+00
4.0000000000e-01 1.0000000000e-03 0.0000000000e+00
4.1000000000e-01 1.0000000000e-03 0.0000000000e+00
4.2000000000e-01 1.0000000000e-03 0.0000000000e+00
4.3000000000e-01 1.0000000000e-03 0.0000000000e+00
4.4000000000e-01 1.0000000000e-03 0.0000000000e+00
4.5000000000e-01 1.0000000000e-03 0.0000000000e+00
4.6000000000e-01 1.0000000000e-03 0.0000000000e+00
4.7000000000e-01 1.0000000000e-03 0.0000000000e+00
4.8000000000e-01 1.0000000000e-03 0.0000000000e+00
4.9000000000e-01 1.0000000000e-03 0.0000000000e+00
5.0000000000e-01 1.0000000000e-03 0.0000000000e+00
5.1000000000e-01 1.0000000000e-03 0.0000000000e+00
5.2000000000e-01 1.0000000000e-03 0.0000000000e+00
5.3000000000e-01 1.0000000000e-03 0.0000000000e+00
5.4000000000e-01 1.0000000000e-03 0.0000000000e+00
5.5000000000e-01 1.0000000000e-03 0.0000000000e+00
5.6000000000e-01 1.0000000000e-03 0.0000000000e+00
5.7000000000e-01 1.0000000000e-03 0.0000000000e+00
5.8000000000e-01 1.0000000000e-03 0.0000000000e+00
5.9000000000e-01 1.0000000000e-03 0.0000000000e+00
6.0000000000e-01 1.0000000000e-03 0.0000000000e+00
6.1000000000e-01 1.0000000000e-03 0.0000000000e+00
6.2000000000e-01 1.0000000000e-03 0.0000000000e+00
6.3000000000e-01 1.0000000000e-03 0.0000000000e+00
6.4000000000e-01 1.0000000000e-03 0.0000000000e+00
6.5000000000e-01 1.0000000000e-03 0.0000000000e+00
6.6000000000e-01 1.0000000000e-03 0.0000000000e+00
6.7000000000e-01 1.0000000000e-03 0.0000000000e+00
6.8000000000e-01 1.0000000000e-03 0.0000000000e+00
6.9000000000e-01 1.0000000000e-03 0.0000000000e+00
7.0000000000e-01 1.0000000000e-03 0.0000000000e+00
7.1000000000e-01 1.0000000000e-03 0.0000000000e+00
7.2000000000e-01 1.0000000000e-03 0.0000000000e+00
7.3000000000e-01 1.0000000000e-03 0.0000000000e+00
7.4000000000e-01 1.0000000000e-03 0.0000000000e+00
7.5000000000e-01 1.0000000000e-03 0.0000000000e+00
7.6000000000e-01 1.0000000000e-03 0.0000000000e+00
7.7000000000e-01 1.0000000000e-03 0.0000000000e+00
7.8000000000e-01 1.0000000000e-03 0.0000000000e+00
7.9000000000e-01 1.0000000000e-03 0.0000000000e+00
8.0000000000e-01 1.0000000000e-03 0.0000000000e+00
8.1000000000e-01 1.0000000000e-03 0.0000000000e+00
8.2000000000e-01 1.0000000000e-03 0.0000000000e+00
8.3000000000e-01 1.0000000000e-03 0.0000000000e+00
8.4000000000e-01 1.0000000000e-03 0.0000000000e+00
8.5000000000e-01 1.0000000000e-03 0.0000000000e+00
8.6000000000e-01 1.0000000000e-03 0.0000000000e+00
8.7000000000e-01 1.0000000000e-03 0.0000000000e+00
8.8000000000e-01 1.0000000000e-03 0.0000000000e+00
8.9000000000e-01 1.0000000000e-03 0.0000000000e+00
9.0000000000e-01 1.0000000000e-03 0.0000000000e+00
9.1000000000e-01 1.0000000000e-03 0.0000000000e+00
9.2000000000e-01 1.0000000000e-03 0.0000000000e+00
[...]
CELL_DATA 1000

SCALARS massDensity float
LOOKUP_TABLE default
9.9999997150e+02
9.9999995031e+02
9.9999988541e+02
9.9999973330e+02
9.9999939029e+02
9.9999863743e+02
9.9999702676e+02
9.9999366879e+02
9.9998685040e+02
9.9997337487e+02
9.9994747057e+02
9.9989907036e+02
9.9981124011e+02
9.9965656380e+02
9.9939241857e+02
9.9895533663e+02
9.9825506594e+02
9.9716945683e+02
9.9554177115e+02
9.9318220010e+02
9.8987503778e+02
9.8539196499e+02
9.7951039527e+02
9.7203427157e+02
9.6281368582e+02
9.5175969724e+02
9.3885181188e+02
9.2413735669e+02
9.0772377697e+02
8.8976612751e+02
8.7045245087e+02
8.4998943428e+02
8.2859001142e+02
8.0646375816e+02
7.8381025198e+02
7.6081511936e+02
7.3764827917e+02
7.1446384265e+02
6.9140118462e+02
6.6858679906e+02
6.4613665723e+02
6.2415887559e+02
6.0275656303e+02
5.8203074296e+02
5.6208322747e+02
5.4301924449e+02
5.2494946835e+02
5.0799086511e+02
4.9226544714e+02
4.7789570609e+02
4.6499534744e+02
4.5365430769e+02
4.4391826173e+02
4.3576497553e+02
4.2908219377e+02
4.2365265271e+02
4.1915350765e+02
4.1516644044e+02
4.1120188994e+02
4.0674118538e+02
4.0129072040e+02
3.9445108637e+02
3.8599001915e+02
3.7589792981e+02
3.6440392655e+02
3.5194206561e+02
3.3907595595e+02
3.2640403590e+02
3.1447094305e+02
3.0370327881e+02
2.9437675370e+02
2.8661242671e+02
2.8039602569e+02
2.7561625933e+02
2.7212058965e+02
2.6977466444e+02
2.6845693639e+02
2.6781796029e+02
2.6662804644e+02
2.6202133600e+02
2.4992634006e+02
2.2791315216e+02
1.9870077313e+02
1.6975333784e+02
1.4798124444e+02
1.3522620842e+02
1.2911762969e+02
1.2656490895e+02
1.2557722081e+02
1.2520956244e+02
1.2507532271e+02
1.2502685253e+02
1.2500949647e+02
1.2500332995e+02
1.2500115687e+02
1.2500039789e+02
1.2500013540e+02
1.2500004563e+02
1.2500001547e+02
1.2500000680e+02
9.9999997150e+02
9.9999995031e+02
9.9999988541e+02
9.9999973330e+02
9.9999939029e+02
9.9999863743e+02
9.9999702676e+02
9.9999366879e+02
9.9998685040e+02
9.9997337487e+02
9.9994747057e+02
9.9989907036e+02
9.9981124011e+02
9.9965656380e+02
9.9939241857e+02
9.9895533663e+02
9.9825506594e+02
9.9716945683e+02
9.9554177115e+02
9.9318220010e+02
9.8987503778e+02
9.8539196499e+02
9.7951039527e+02
9.7203427157e+02
9.6281368582e+02
9.5175969724e+02
9.3885181188e+02
9.2413735669e+02
9.0772377697e+02
8.8976612751e+02
8.7045245087e+02
8.4998943428e+02
8.2859001142e+02
8.0646375816e+02
7.8381025198e+02
7.6081511936e+02
7.3764827917e+02
7.1446384265e+02
6.9140118462e+02
6.6858679906e+02
6.4613665723e+02
6.2415887559e+02
6.0275656303e+02
5.8203074296e+02
5.6208322747e+02
5.4301924449e+02
5.2494946835e+02
5.0799086511e+02
4.9226544714e+02
4.7789570609e+02
4.6499534744e+02
4.5365430769e+02
4.4391826173e+02
4.3576497553e+02
4.2908219377e+02
4.2365265271e+02
4.1915350765e+02
4.1516644044e+02
4.1120188994e+02
4.0674118538e+02
4.0129072040e+02
3.9445108637e+02
3.8599001915e+02
3.7589792981e+02
3.6440392655e+02
3.5194206561e+02
3.3907595595e+02
3.2640403590e+02
3.1447094305e+02
3.0370327881e+02
2.9437675370e+02
2.8661242671e+02
2.8039602569e+02
2.7561625933e+02
2.7212058965e+02
2.6977466444e+02
2.6845693639e+02
2.6781796029e+02
2.6662804644e+02
2.6202133600e+02
2.4992634006e+02
2.2791315216e+02
1.9870077313e+02
1.6975333784e+02
1.4798124444e+02
1.3522620842e+02
1.2911762969e+02
1.2656490895e+02
1.2557722081e+02
1.2520956244e+02
1.2507532271e+02
1.2502685253e+02
1.2500949647e+02
1.2500332995e+02
1.2500115687e+02
1.2500039789e+02
1.2500013540e+02
1.2500004563e+02
1.2500001547e+02
1.2500000680e+02
9.9999997150e+02
9.9999995031e+02
9.9999988541e+02
9.9999973330e+02
9.9999939029e+02
9.9999863743e+02
9.9999702676e+02
9.9999366879e+02
9.9998685040e+02
9.9997337487e+02
9.9994747057e+02
9.9989907036e+02
9.9981124011e+02
9.9965656380e+02
9.9939241857e+02
9.9895533663e+02
9.9825506594e+02
9.9716945683e+02
9.9554177115e+02
9.9318220010e+02
9.8987503778e+02
9.8539196499e+02
9.7951039527e+02
9.7203427157e+02
9.6281368582e+02
9.5175969724e+02
9.3885181188e+02
9.2413735669e+02
9.0772377697e+02
8.8976612751e+02
8.7045245087e+02
8.4998943428e+02
8.2859001142e+02
8.0646375816e+02
7.8381025198e+02
7.6081511936e+02
7.3764827917e+02
7.1446384265e+02
6.9140118462e+02
6.6858679906e+02
6.4613665723e+02
6.2415887559e+02
6.0275656303e+02
5.8203074296e+02
5.6208322747e+02
5.4301924449e+02
5.2494946835e+02
5.0799086511e+02
4.9226544714e+02
4.7789570609e+02
4.6499534744e+02
4.5365430769e+02
4.4391826173e+02
4.3576497553e+02
4.2908219377e+02
4.2365265271e+02
4.1915350765e+02
4.1516644044e+02
4.1120188994e+02
4.0674118538e+02
4.0129072040e+02
3.9445108637e+02
3.8599001915e+02
3.7589792981e+02
3.6440392655e+02
3.5194206561e+02
3.3907595595e+02
3.2640403590e+02
3.1447094305e+02
3.0370327881e+02
2.9437675370e+02
2.8661242671e+02
2.8039602569e+02
2.7561625933e+02
2.7212058965e+02
2.6977466444e+02
2.6845693639e+02
2.6781796029e+02
2.6662804644e+02
2.6202133600e+02
2.4992634006e+02
2.2791315216e+02
1.9870077313e+02
1.6975333784e+02
1.4798124444e+02
1.3522620842e+02
1.2911762969e+02
1.2656490895e+02
1.2557722081e+02
1.2520956244e+02
1.2507532271e+02
1.2502685253e+02
1.2500949647e+02
1.2500332995e+02
1.2500115687e+02
1.2500039789e+02
1.2500013540e+02
1.2500004563e+02
1.2500001547e+02
1.2500000680e+02
9.9999997150e+02
9.9999995031e+02
9.9999988541e+02
9.9999973330e+02
9.9999939029e+02
9.9999863743e+02
9.9999702676e+02
9.9999366879e+02
9.9998685040e+02
9.9997337487e+02
9.9994747057e+02
9.9989907036e+02
9.9981124011e+02
9.9965656380e+02
9.9939241857e+02
9.9895533663e+02
9.9825506594e+02
9.9716945683e+02
9.9554177115e+02
9.9318220010e+02
9.8987503778e+02
9.8539196499e+02
9.7951039527e+02
9.7203427157e+02
9.6281368582e+02
9.5175969724e+02
9.3885181188e+02
9.2413735669e+02
9.0772377697e+02
8.8976612751e+02
8.7045245087e+02
8.4998943428e+02
8.2859001142e+02
8.0646375816e+02
7.8381025198e+02
7.6081511936e+02
7.3764827917e+02
7.1446384265e+02
6.9140118462e+02
6.6858679906e+02
6.4613665723e+02
6.2415887559e+02
6.0275656303e+02
5.8203074296e+02
5.6208322747e+02
5.4301924449e+02
5.2494946835e+02
5.0799086511e+02
4.9226544714e+02
4.7789570609e+02
4.6499534744e+02
4.5365430769e+02
4.4391826173e+02
4.3576497553e+02
4.2908219377e+02
4.2365265271e+02
4.1915350765e+02
4.1516644044e+02
4.1120188994e+02
4.0674118538e+02
4.0129072040e+02
3.9445108637e+02
3.8599001915e+02
3.7589792981e+02
3.6440392655e+02
3.5194206561e+02
3.3907595595e+02
3.2640403590e+02
3.1447094305e+02
3.0370327881e+02
2.9437675370e+02
2.8661242671e+02
2.8039602569e+02
2.7561625933e+02
2.7212058965e+02
2.6977466444e+02
2.6845693639e+02
2.6781796029e+02
2.6662804644e+02
2.6202133600e+02
2.4992634006e+02
2.2791315216e+02
1.9870077313e+02
1.6975333784e+02
1.4798124444e+02
1.3522620842e+02
1.2911762969e+02
1.2656490895e+02
1.2557722081e+02
1.2520956244e+02
1.2507532271e+02
1.2502685253e+02
1.2500949647e+02
1.2500332995e+02
1.2500115687e+02
1.2500039789e+02
1.2500013540e+02
1.2500004563e+02
1.2500001547e+02
1.2500000680e+02
9.9999997150e+02
9.9999995031e+02
9.9999988541e+02
9.9999973330e+02
9.9999939029e+02
9.9999863743e+02
9.9999702676e+02
9.9999366879e+02
9.9998685040e+02
9.9997337487e+02
9.9994747057e+02
9.9989907036e+02
9.9981124011e+02
9.9965656380e+02
9.9939241857e+02
9.9895533663e+02
9.9825506594e+02
9.9716945683e+02
9.9554177115e+02
9.9318220010e+02
9.8987503778e+02
9.8539196499e+02
9.7951039527e+02
9.7203427157e+02
9.6281368582e+02
9.5175969724e+02
9.3885181188e+02
9.2413735669e+02
9.0772377697e+02
8.8976612751e+02
8.7045245087e+02
8.4998943428e+02
8.2859001142e+02
8.0646375816e+02
7.8381025198e+02
7.6081511936e+02
7.3764827917e+02
7.1446384265e+02
6.9140118462e+02
6.6858679906e+02
6.4613665723e+02
6.2415887559e+02
6.0275656303e+02
5.8203074296e+02
5.6208322747e+02
5.4301924449e+02
5.2494946835e+02
5.0799086511e+02
4.9226544714e+02
4.7789570609e+02
4.6499534744e+02
4.5365430769e+02
4.4391826173e+02
4.3576497553e+02
4.2908219377e+02
4.2365265271e+02
4.1915350765e+02
4.1516644044e+02
4.1120188994e+02
4.0674118538e+02
4.0129072040e+02
3.9445108637e+02
3.8599001915e+02
3.7589792981e+02
3.6440392655e+02
3.5194206561e+02
3.3907595595e+02
3.2640403590e+02
3.1447094305e+02
3.0370327881e+02
2.9437675370e+02
2.8661242671e+02
2.8039602569e+02
2.7561625933e+02
2.7212058965e+02
2.6977466444e+02
2.6845693639e+02
2.6781796029e+02
2.6662804644e+02
2.6202133600e+02
2.4992634006e+02
2.2791315216e+02
1.9870077313e+02
1.6975333784e+02
1.4798124444e+02
1.3522620842e+02
1.2911762969e+02
1.2656490895e+02
1.2557722081e+02
1.2520956244e+02
1.2507532271e+02
1.2502685253e+02
1.2500949647e+02
1.2500332995e+02
1.2500115687e+02
1.2500039789e+02
1.2500013540e+02
1.2500004563e+02
1.2500001547e+02
1.2500000680e+02
9.9999997150e+02
9.9999995031e+02
9.9999988541e+02
9.9999973330e+02
9.9999939029e+02
9.9999863743e+02
9.9999702676e+02
9.9999366879e+02
9.9998685040e+02
9.9997337487e+02
9.9994747057e+02
9.9989907036e+02
9.9981124011e+02
9.9965656380e+02
9.9939241857e+02
9.9895533663e+02
9.9825506594e+02
9.9716945683e+02
9.9554177115e+02
9.9318220010e+02
9.8987503778e+02
9.8539196499e+02
9.7951039527e+02
9.7203427157e+02
9.6281368582e+02
9.5175969724e+02
9.3885181188e+02
9.2413735669e+02
9.0772377697e+02
8.8976612751e+02
8.7045245087e+02
8.4998943428e+02
8.2859001142e+02
8.0646375816e+02
7.8381025198e+02
7.6081511936e+02
7.3764827917e+02
7.1446384265e+02
6.9140118462e+02
6.6858679906e+02
6.4613665723e+02
6.2415887559e+02
6.0275656303e+02
5.8203074296e+02
5.6208322747e+02
5.4301924449e+02
5.2494946835e+02
5.0799086511e+02
4.9226544714e+02
4.7789570609e+02
4.6499534744e+02
4.5365430769e+02
4.4391826173e+02
4.3576497553e+02
4.2908219377e+02
4.2365265271e+02
4.1915350765e+02
4.1516644044e+02
4.1120188994e+02
4.0674118538e+02
4.0129072040e+02
3.9445108637e+02
3.8599001915e+02
3.7589792981e+02
3.6440392655e+02
3.5194206561e+02
3.3907595595e+02
3.2640403590e+02
3.1447094305e+02
3.0370327881e+02
2.9437675370e+02
2.8661242671e+02
2.8039602569e+02
2.7561625933e+02
2.7212058965e+02
2.6977466444e+02
2.6845693639e+02
2.6781796029e+02
2.6662804644e+02
2.6202133600e+02
2.4992634006e+02
2.2791315216e+02
1.9870077313e+02
1.6975333784e+02
1.4798124444e+02
1.3522620842e+02
1.2911762969e+02
1.2656490895e+02
1.2557722081e+02
1.2520956244e+02
1.2507532271e+02
1.2502685253e+02
1.2500949647e+02
1.2500332995e+02
1.2500115687e+02
1.2500039789e+02
1.2500013540e+02
1.2500004563e+02
1.2500001547e+02
1.2500000680e+02
9.9999997150e+02
9.9999995031e+02
9.9999988541e+02
9.9999973330e+02
9.9999939029e+02
9.9999863743e+02
9.9999702676e+02
9.9999366879e+02
9.9998685040e+02
9.9997337487e+02
9.9994747057e+02
9.9989907036e+02
9.9981124011e+02
9.9965656380e+02
9.9939241857e+02
9.9895533663e+02
9.9825506594e+02
9.9716945683e+02
9.9554177115e+02
9.9318220010e+02
9.8987503778e+02
9.8539196499e+02
9.7951039527e+02
9.7203427157e+02
9.6281368582e+02
9.5175969724e+02
9.3885181188e+02
9.2413735669e+02
9.0772377697e+02
8.8976612751e+02
8.7045245087e+02
8.4998943428e+02
8.2859001142e+02
8.0646375816e+02
7.8381025198e+02
7.6081511936e+02
7.3764827917e+02
7.1446384265e+02
6.9140118462e+02
6.6858679906e+02
6.4613665723e+02
6.2415887559e+02
6.0275656303e+02
5.8203074296e+02
5.6208322747e+02
5.4301924449e+02
5.2494946835e+02
5.0799086511e+02
4.9226544714e+02
4.7789570609e+02
4.6499534744e+02
4.5365430769e+02
4.4391826173e+02
4.3576497553e+02
4.2908219377e+02
4.2365265271e+02
4.1915350765e+02
4.1516644044e+02
4.1120188994e+02
4.0674118538e+02
4.0129072040e+02
3.9445108637e+02
3.8599001915e+02
3.7589792981e+02
3.6440392655e+02
3.5194206561e+02
3.3907595595e+02
3.2640403590e+02
3.1447094305e+02
3.0370327881e+02
2.9437675370e+02
2.8661242671e+02
2.8039602569e+02
2.7561625933e+02
2.7212058965e+02
2.6977466444e+02
2.6845693639e+02
2.6781796029e+02
2.6662804644e+02
2.6202133600e+02
2.4992634006e+02
2.2791315216e+02
1.9870077313e+02
1.6975333784e+02
1.4798124444e+02
1.3522620842e+02
1.2911762969e+02
1.2656490895e+02
1.2557722081e+02
1.2520956244e+02
1.2507532271e+02
1.2502685253e+02
1.2500949647e+02
1.2500332995e+02
1.2500115687e+02
1.2500039789e+02
1.2500013540e+02
1.2500004563e+02
1.2500001547e+02
1.2500000680e+02
9.9999997150e+02
9.9999995031e+02
9.9999988541e+02
9.9999973330e+02
9.9999939029e+02
9.9999863743e+02
9.9999702676e+02
9.9999366879e+02
9.9998685040e+02
9.9997337487e+02
9.9994747057e+02
9.9989907036e+02
9.9981124011e+02
9.9965656380e+02
9.9939241857e+02
9.9895533663e+02
9.9825506594e+02
9.9716945683e+02
9.9554177115e+02
9.9318220010e+02
9.8987503778e+02
9.8539196499e+02
9.7951039527e+02
9.7203427157e+02
9.6281368582e+02
9.5175969724e+02
9.3885181188e+02
9.2413735669e+02
9.0772377697e+02
8.8976612751e+02
8.7045245087e+02
8.4998943428e+02
8.2859001142e+02
8.0646375816e+02
7.8381025198e+02
7.6081511936e+02
7.3764827917e+02
7.1446384265e+02
6.9140118462e+02
6.6858679906e+02
6.4613665723e+02
6.2415887559e+02
6.0275656303e+02
5.8203074296e+02
5.6208322747e+02
5.4301924449e+02
5.2494946835e+02
5.0799086511e+02
4.9226544714e+02
4.7789570609e+02
4.6499534744e+02
4.5365430769e+02
4.4391826173e+02
4.3576497553e+02
4.2908219377e+02
4.2365265271e+02
4.1915350765e+02
4.1516644044e+02
4.1120188994e+02
4.0674118538e+02
4.0129072040e+02
3.9445108637e+02
3.8599001915e+02
3.7589792981e+02
3.6440392655e+02
3.5194206561e+02
3.3907595595e+02
3.2640403590e+02
3.1447094305e+02
3.0370327881e+02
2.9437675370e+02
2.8661242671e+02
2.8039602569e+02
2.7561625933e+02
2.7212058965e+02
2.6977466444e+02
2.6845693639e+02
2.6781796029e+02
2.6662804644e+02
2.6202133600e+02
2.4992634006e+02
2.2791315216e+02
1.9870077313e+02
1.6975333784e+02
1.4798124444e+02
1.3522620842e+02
1.2911762969e+02
1.2656490895e+02
1.2557722081e+02
1.2520956244e+02
1.2507532271e+02
1.2502685253e+02
1.2500949647e+02
1.2500332995e+02
1.2500115687e+02
1.2500039789e+02
1.2500013540e+02
1.2500004563e+02
1.2500001547e+02
1.2500000680e+02
9.9999997150e+02
9.9999995031e+02
9.9999988541e+02
9.9999973330e+02
9.9999939029e+02
9.9999863743e+02
9.9999702676e+02
9.9999366879e+02
9.9998685040e+02
9.9997337487e+02
9.9994747057e+02
9.9989907036e+02
9.9981124011e+02
9.9965656380e+02
9.9939241857e+02
9.9895533663e+02
9.9825506594e+02
9.9716945683e+02
9.9554177115e+02
9.9318220010e+02
9.8987503778e+02
9.8539196499e+02
9.7951039527e+02
9.7203427157e+02
9.6281368582e+02
9.5175969724e+02
9.3885181188e+02
9.2413735669e+02
9.0772377697e+02
8.8976612751e+02
8.7045245087e+02
8.4998943428e+02
8.2859001142e+02
8.0646375816e+02
7.8381025198e+02
7.6081511936e+02
7.3764827917e+02
7.1446384265e+02
6.9140118462e+02
6.6858679906e+02
6.4613665723e+02
6.2415887559e+02
6.0275656303e+02
5.8203074296e+02
5.6208322747e+02
5.4301924449e+02
5.2494946835e+02
5.0799086511e+02
4.9226544714e+02
4.7789570609e+02
4.6499534744e+02
4.5365430769e+02
4.4391826173e+02
4.3576497553e+02
4.2908219377e+02
4.2365265271e+02
4.1915350765e+02
4.1516644044e+02
4.1120188994e+02
4.0674118538e+02
4.0129072040e+02
3.9445108637e+02
3.8599001915e+02
3.7589792981e+02
3.6440392655e+02
3.5194206561e+02
3.3907595595e+02
3.2640403590e+02
3.1447094305e+02
3.0370327881e+02
2.9437675370e+02
2.8661242671e+02
2.8039602569e+02
2.7561625933e+02
2.7212058965e+02
2.6977466444e+02
2.6845693639e+02
2.6781796029e+02
2.6662804644e+02
2.6202133600e+02
2.4992634006e+02
2.2791315216e+02
1.9870077313e+02
1.6975333784e+02
1.4798124444e+02
1.3522620842e+02
1.2911762969e+02
1.2656490895e+02
1.2557722081e+02
1.2520956244e+02
1.2507532271e+02
1.2502685253e+02
1.2500949647e+02
1.2500332995e+02
1.2500115687e+02
1.2500039789e+02
1.2500013540e+02
1.2500004563e+02
1.2500001547e+02
1.2500000680e+02
9.9999997150e+02
9.9999995031e+02
9.9999988541e+02
9.9999973330e+02
9.9999939029e+02
9.9999863743e+02
9.9999702676e+02
9.9999366879e+02
9.9998685040e+02
9.9997337487e+02
9.9994747057e+02
9.9989907036e+02
9.9981124011e+02
9.9965656380e+02
9.9939241857e+02
9.9895533663e+02
9.9825506594e+02
9.9716945683e+02
9.9554177115e+02
9.9318220010e+02
9.8987503778e+02
9.8539196499e+02
9.7951039527e+02
9.7203427157e+02
9.6281368582e+02
9.5175969724e+02
9.3885181188e+02
9.2413735669e+02
9.0772377697e+02
8.8976612751e+02
8.7045245087e+02
8.4998943428e+02
8.2859001142e+02
8.0646375816e+02
7.8381025198e+02
7.6081511936e+02
7.3764827917e+02
7.1446384265e+02
6.9140118462e+02
6.6858679906e+02
6.4613665723e+02
6.2415887559e+02
6.0275656303e+02
5.8203074296e+02
5.6208322747e+02
5.4301924449e+02
5.2494946835e+02
5.0799086511e+02
4.9226544714e+02
4.7789570609e+02
4.6499534744e+02
4.5365430769e+02
4.4391826173e+02
4.3576497553e+02
4.2908219377e+02
4.2365265271e+02
4.1915350765e+02
4.1516644044e+02
4.1120188994e+02
4.0674118538e+02
4.0129072040e+02
3.9445108637e+02
3.8599001915e+02
3.7589792981e+02
3.6440392655e+02
3.5194206561e+02
3.3907595595e+02
3.2640403590e+02
3.1447094305e+02
3.0370327881e+02
2.9437675370e+02
2.8661242671e+02
2.8039602569e+02
2.7561625933e+02
2.7212058965e+02
2.6977466444e+02
2.6845693639e+02
2.6781796029e+02
2.6662804644e+02
2.6202133600e+02
2.4992634006e+02
2.2791315216e+02
1.9870077313e+02
1.6975333784e+02
1.4798124444e+02
1.3522620842e+02
1.2911762969e+02
1.2656490895e+02
1.2557722081e+02
1.2520956244e+02
1.2507532271e+02
1.2502685253e+02
1.2500949647e+02
1.2500332995e+02
1.2500115687e+02
1.2500039789e+02
1.2500013540e+02
1.2500004563e+02
1.2500001547e+02
1.2500000680e+02

SCALARS molarDensity float
LOOKUP_TABLE default
1.2977623763e+05
1.2977623488e+05
1.2977622646e+05
1.2977620672e+05
1.2977616220e+05
1.2977606450e+05
1.2977585547e+05
1.2977541969e+05
1.2977453482e+05
1.2977278602e+05
1.2976942426e+05
1.2976314306e+05
1.2975174478e+05
1.2973167147e+05
1.2969739169e+05
1.2964066884e+05
1.2954979034e+05
1.2940890407e+05
1.2919766914e+05
1.2889145288e+05
1.2846226179e+05
1.2788046545e+05
1.2711717744e+05
1.2614695420e+05
1.2495034124e+05
1.2351579615e+05
1.2184065931e+05
1.1993107262e+05
1.1780097994e+05
1.1547050369e+05
1.1296404733e+05
1.1030843395e+05
1.0753129728e+05
1.0465983530e+05
1.0171994842e+05
9.8735726535e+04
9.5729221092e+04
9.2720432064e+04
8.9727446989e+04
8.6766681783e+04
8.3853186759e+04
8.1000992865e+04
7.8223481185e+04
7.5533762158e+04
7.2945048574e+04
7.0470996519e+04
6.8125968889e+04
6.5925145103e+04
6.3884359465e+04
6.2019508483e+04
6.0345348426e+04
5.8873550913e+04
5.7610043463e+04
5.6551940627e+04
5.5684674328e+04
5.4980048897e+04
5.4396166762e+04
5.3878740165e+04
5.3364235703e+04
5.2785342232e+04
5.2078001372e+04
5.1190379377e+04
5.0092333875e+04
4.8782620454e+04
4.7290971912e+04
4.5673718439e+04
4.4004003088e+04
4.2359488933e+04
4.0810856996e+04
3.9413470002e+04
3.8203108629e+04
3.7195483456e+04
3.6388742297e+04
3.5768442184e+04
3.5314787312e+04
3.5010341956e+04
3.4839332163e+04
3.4756408246e+04
3.4601985699e+04
3.4004144133e+04
3.2434501022e+04
2.9577712237e+04
2.5786639486e+04
2.2029950138e+04
1.9204449690e+04
1.7549149057e+04
1.6756400670e+04
1.6425118167e+04
1.6296939713e+04
1.6249226392e+04
1.6231805264e+04
1.6225514986e+04
1.6223262582e+04
1.6222462314e+04
1.6222180300e+04
1.6222081803e+04
1.6222047737e+04
1.6222036088e+04
1.6222032174e+04
1.6222031049e+04
1.2977623763e+05
1.2977623488e+05
1.2977622646e+05
1.2977620672e+05
1.2977616220e+05
1.2977606450e+05
1.2977585547e+05
1.2977541969e+05
1.2977453482e+05
1.2977278602e+05
1.2976942426e+05
1.2976314306e+05
1.2975174478e+05
1.2973167147e+05
1.2969739169e+05
1.2964066884e+05
1.2954979034e+05
1.2940890407e+05
1.2919766914e+05
1.2889145288e+05
1.2846226179e+05
1.2788046545e+05
1.2711717744e+05
1.2614695420e+05
1.2495034124e+05
1.2351579615e+05
1.2184065931e+05
1.1993107262e+05
1.1780097994e+05
1.1547050369e+05
1.1296404733e+05
1.1030843395e+05
1.0753129728e+05
1.0465983530e+05
1.0171994842e+05
9.8735726535e+04
9.5729221092e+04
9.2720432064e+04
8.9727446989e+04
8.6766681783e+04
8.3853186759e+04
8.1000992865e+04
7.8223481185e+04
7.5533762158e+04
7.2945048574e+04
7.0470996519e+04
6.8125968889e+04
6.5925145103e+04
6.3884359465e+04
6.2019508483e+04
6.0345348426e+04
5.8873550913e+04
5.7610043463e+04
5.6551940627e+04
5.5684674328e+04
5.4980048897e+04
5.4396166762e+04
5.3878740165e+04
5.3364235703e+04
5.2785342232e+04
5.2078001372e+04
5.1190379377e+04
5.0092333875e+04
4.8782620454e+04
4.7290971912e+04
4.5673718439e+04
4.4004003088e+04
4.2359488933e+04
4.0810856996e+04