# vtk DataFile Version 2.0
Blank
ASCII
DATASET STRUCTURED_GRID
DIMENSIONS 101 11 2
POINTS 2222 float
0.0000000000e+00 0.0000000000e+00 0.0000000000e+00
1.0000000000e-02 0.0000000000e+00 0.0000000000e+00
2.0000000000e-02 0.0000000000e+00 0.0000000000e+00
3.0000000000e-02 0.0000000000e+00 0.0000000000e+00
4.0000000000e-02 0.0000000000e+00 0.0000000000e+00
5.0000000000e-02 0.0000000000e+00 0.0000000000e+00
6.0000000000e-02 0.0000000000e+00 0.0000000000e+00
7.0000000000e-02 0.0000000000e+00 0.0000000000e+00
8.0000000000e-02 0.0000000000e+00 0.0000000000e+00
9.0000000000e-02 0.0000000000e+00 0.0000000000e+00
1.0000000000e-01 0.0000000000e+00 0.0000000000e+00
1.1000000000e-01 0.0000000000e+00 0.0000000000e+00
1.2000000000e-01 0.0000000000e+00 0.0000000000e+00
1.3000000000e-01 0.0000000000e+00 0.0000000000e+00
1.4000000000e-01 0.0000000000e+00 0.0000000000e+00
1.5000000000e-01 0.0000000000e+00 0.0000000000e+00
1.6000000000e-01 0.0000000000e+00 0.0000000000e+00
1.7000000000e-01 0.0000000000e+00 0.0000000000e+00
1.8000000000e-01 0.0000000000e+00 0.0000000000e+00
1.9000000000e-01 0.0000000000e+00 0.0000000000e+00
2.0000000000e-01 0.0000000000e+00 0.0000000000e+00
2.1000000000e-01 0.0000000000e+00 0.0000000000e+00
2.2000000000e-01 0.0000000000e+00 0.0000000000e+00
2.3000000000e-01 0.0000000000e+00 0.0000000000e+00
2.4000000000e-01 0.0000000000e+00 0.0000000000e+00
2.5000000000e-01 0.0000000000e+00 0.0000000000e+00
2.6000000000e-01 0.0000000000e+00 0.0000000000e+00
2.7000000000e-01 0.0000000000e+00 0.0000000000e+00
2.8000000000e-01 0.0000000000e+00 0.0000000000e+00
2.9000000000e-01 0.0000000000e+00 0.0000000000e+00
3.0000000000e-01 0.0000000000e+00 0.0000000000e+00
3.1000000000e-01 0.0000000000e+00 0.0000000000e+00
3.2000000000e-01 0.0000000000e+00 0.0000000000e+00
3.3000000000e-01 0.0000000000e+00 0.0000000000e+00
3.4000000000e-01 0.0000000000e+00 0.0000000000e+00
3.5000000000e-01 0.0000000000e+00 0.0000000000e+00
3.6000000000e-01 0.0000000000e+00 0.0000000000e+00
3.7000000000e-01 0.0000000000e+00 0.0000000000e+00
3.8000000000e-01 0.0000000000e+00 0.0000000000e+00
3.9000000000e-01 0.0000000000e+00 0.0000000000e+00
4.0000000000e-01 0.0000000000e+00 0.0000000000e+00
4.1000000000e-01 0.0000000000e+00 0.0000000000e+00
4.2000000000e-01 0.0000000000e+00 0.0000000000e+00
4.3000000000e-01 0.0000000000e+00 0.0000000000e+00
4.4000000000e-01 0.0000000000e+00 0.0000000000e+00
4.5000000000e-01 0.0000000000e+00 0.0000000000e+00
4.6000000000e-01 0.0000000000e+00 0.0000000000e+00
4.7000000000e-01 0.0000000000e+00 0.0000000000e+00
4.8000000000e-01 0.0000000000e+00 0.0000000000e+00
4.9000000000e-01 0.0000000000e+00 0.0000000000e+00
5.0000000000e-01 0.0000000000e+00 0.0000000000e+00
5.1000000000e-01 0.0000000000e+00 0.0000000000e+00
5.2000000000e-01 0.0000000000e+00 0.0000000000e+00
5.3000000000e-01 0.0000000000e+00 0.0000000000e+00
5.4000000000e-01 0.0000000000e+00 0.0000000000e+00
5.5000000000e-01 0.0000000000e+00 0.0000000000e+00
5.6000000000e-01 0.0000000000e+00 0.0000000000e+00
5.7000000000e-01 0.0000000000e+00 0.0000000000e+00
5.8000000000e-01 0.0000000000e+00 0.0000000000e+00
5.9000000000e-01 0.0000000000e+00 0.0000000000e+00
6.0000000000e-01 0.0000000000e+00 0.0000000000e+00
6.1000000000e-01 0.0000000000e+00 0.0000000000e+00
6.2000000000e-01 0.0000000000e+00 0.0000000000e+00
6.3000000000e-01 0.0000000000e+00 0.0000000000e+00
6.4000000000e-01 0.0000000000e+00 0.0000000000e+00
6.5000000000e-01 0.0000000000e+00 0.0000000000e+00
6.6000000000e-01 0.0000000000e+00 0.0000000000e+00
6.7000000000e-01 0.0000000000e+00 0.0000000000e+00
6.8000000000e-01 0.0000000000e+00 0.0000000000e+00
6.9000000000e-01 0.0000000000e+00 0.0000000000e+00
7.0000000000e-01 0.0000000000e+00 0.0000000000e+00
7.1000000000e-01 0.0000000000e+00 0.0000000000e+00
7.2000000000e-01 0.0000000000e+00 0.0000000000e+00
7.3000000000e-01 0.0000000000e+00 0.0000000000e+00
7.4000000000e-01 0.0000000000e+00 0.0000000000e+00
7.5000000000e-01 0.0000000000e+00 0.0000000000e+00
7.6000000000e-01 0.0000000000e+00 0.0000000000e+00
7.7000000000e-01 0.0000000000e+00 0.0000000000e+00
7.8000000000e-01 0.0000000000e+00 0.0000000000e+00
7.9000000000e-01 0.0000000000e+00 0.0000000000e+00
8.0000000000e-01 0.0000000000e+00 0.0000000000e+00
8.1000000000e-01 0.0000000000e+00 0.0000000000e+00
8.2000000000e-01 0.0000000000e+00 0.0000000000e+00
8.3000000000e-01 0.0000000000e+00 0.0000000000e+00
8.4000000000e-01 0.0000000000e+00 0.0000000000e+00
8.5000000000e-01 0.0000000000e+00 0.0000000000e+00
8.6000000000e-01 0.0000000000e+00 0.0000000000e+00
8.7000000000e-01 0.0000000000e+00 0.0000000000e+00
8.8000000000e-01 0.0000000000e+00 0.0000000000e+00
8.9000000000e-01 0.0000000000e+00 0.0000000000e+00
9.0000000000e-01 0.0000000000e+00 0.0000000000e+00
9.1000000000e-01 0.0000000000e+00 0.0000000000e+00
9.2000000000e-01 0.0000000000e+00 0.0000000000e+00
9.3000000000e-01 0.0000000000e+00 0.0000000000e+00
9.4000000000e-01 0.0000000000e+00 0.0000000000e+00
9.5000000000e-01 0.0000000000e+00 0.0000000000e+00
9.6000000000e-01 0.0000000000e+00 0.0000000000e+00
9.7000000000e-01 0.0000000000e+00 0.0000000000e+00
9.8000000000e-01 0.0000000000e+00 0.0000000000e+00
9.9000000000e-01 0.0000000000e+00 0.0000000000e+00
1.0000000000e+00 0.0000000000e+00 0.0000000000e+00
0.0000000000e+00 1.0000000000e-03 0.0000000000e+00
1.0000000000e-02 1.0000000000e-03 0.0000000000e+00
2.0000000000e-02 1.0000000000e-03 0.0000000000e+00
3.0000000000e-02 1.0000000000e-03 0.0000000000e+00
4.0000000000e-02 1.0000000000e-03 0.0000000000e+00
5.0000000000e-02 1.0000000000e-03 0.0000000000e+00
6.0000000000e-02 1.0000000000e-03 0.0000000000e+00
7.0000000000e-02 1.0000000000e-03 0.0000000000e+00
8.0000000000e-02 1.0000000000e-03 0.0000000000e+00
9.0000000000e-02 1.0000000000e-03 0.0000000000e+00
1.0000000000e-01 1.0000000000e-03 0.0000000000e+00
1.1000000000e-01 1.0000000000e-03 0.0000000000e+00
1.2000000000e-01 1.0000000000e-03 0.0000000000e+00
1.3000000000e-01 1.0000000000e-03 0.0000000000e+00
1.4000000000e-01 1.0000000000e-03 0.0000000000e+00
1.5000000000e-01 1.0000000000e-03 0.0000000000e+00
1.6000000000e-01 1.0000000000e-03 0.0000000000e+00
1.7000000000e-01 1.0000000000e-03 0.0000000000e+00
1.8000000000e-01 1.0000000000e-03 0.0000000000e+00
1.9000000000e-01 1.0000000000e-03 0.0000000000e+00
2.0000000000e-01 1.0000000000e-03 0.0000000000e+00
2.1000000000e-01 1.0000000000e-03 0.0000000000e+00
2.2000000000e-01 1.0000000000e-03 0.0000000000e+00
2.3000000000e-01 1.0000000000e-03 0.0000000000e+00
2.4000000000e-01 1.0000000000e-03 0.0000000000e+00
2.5000000000e-01 1.0000000000e-03 0.0000000000e+00
2.6000000000e-01 1.0000000000e-03 0.0000000000e+00
2.7000000000e-01 1.0000000000e-03 0.0000000000e+00
2.8000000000e-01 1.0000000000e-03 0.0000000000e+00
2.9000000000e-01 1.0000000000e-03 0.0000000000e+00
3.0000000000e-01 1.0000000000e-03 0.0000000000e+00
3.1000000000e-01 1.0000000000e-03 0.0000000000e+00
3.2000000000e-01 1.0000000000e-03 0.0000000000e+00
3.3000000000e-01 1.0000000000e-03 0.0000000000e+00
3.4000000000e-01 1.0000000000e-03 0.0000000000e+00
3.5000000000e-01 1.0000000000e-03 0.0000000000e+00
3.6000000000e-01 1.0000000000e-03 0.0000000000e+00
3.7000000000e-01 1.0000000000e-03 0.0000000000e+00
3.8000000000e-01 1.0000000000e-03 0.0000000000e+00
3.9000000000e-01 1.0000000000e-03 0.0000000000e+00
4.0000000000e-01 1.0000000000e-03 0.0000000000e+00
4.1000000000e-01 1.0000000000e-03 0.0000000000e+00
4.2000000000e-01 1.0000000000e-03 0.0000000000e+00
4.3000000000e-01 1.0000000000e-03 0.0000000000e+00
4.4000000000e-01 1.0000000000e-03 0.0000000000e+00
4.5000000000e-01 1.0000000000e-03 0.0000000000e+00
4.6000000000e-01 1.0000000000e-03 0.0000000000e+00
4.7000000000e-01 1.0000000000e-03 0.0000000000e+00
4.8000000000e-01 1.0000000000e-03 0.0000000000e+00
4.9000000000e-01 1.0000000000e-03 0.0000000000e+00
5.0000000000e-01 1.0000000000e-03 0.0000000000e+00
5.1000000000e-01 1.0000000000e-03 0.0000000000e+00
5.2000000000e-01 1.0000000000e-03 0.0000000000e+00
5.3000000000e-01 1.0000000000e-03 0.0000000000e+00
5.4000000000e-01 1.0000000000e-03 0.0000000000e+00
5.5000000000e-01 1.0000000000e-03 0.0000000000e+00
5.6000000000e-01 1.0000000000e-03 0.0000000000e+00
5.7000000000e-01 1.0000000000e-03 0.0000000000e+00
5.8000000000e-01 1.0000000000e-03 0.0000000000e+00
5.9000000000e-01 1.0000000000e-03 0.0000000000e+00
6.0000000000e-01 1.0000000000e-03 0.0000000000e+00
6.1000000000e-01 1.0000000000e-03 0.0000000000e+00
6.2000000000e-01 1.0000000000e-03 0.0000000000e+00
6.3000000000e-01 1.0000000000e-03 0.0000000000e+00
6.4000000000e-01 1.0000000000e-03 0.0000000000e+00
6.5000000000e-01 1.0000000000e-03 0.0000000000e+00
6.6000000000e-01 1.0000000000e-03 0.0000000000e+00
6.7000000000e-01 1.0000000000e-03 0.0000000000e+00
6.8000000000e-01 1.0000000000e-03 0.0000000000e+00
6.9000000000e-01 1.0000000000e-03 0.0000000000e+00
7.0000000000e-01 1.0000000000e-03 0.0000000000e+00
7.1000000000e-01 1.0000000000e-03 0.0000000000e+00
7.2000000000e-01 1.0000000000e-03 0.0000000000e+00
7.3000000000e-01 1.0000000000e-03 0.0000000000e+00
7.4000000000e-01 1.0000000000e-03 0.0000000000e+00
7.5000000000e-01 1.0000000000e-03 0.0000000000e+00
7.6000000000e-01 1.0000000000e-03 0.0000000000e+00
7.7000000000e-01 1.0000000000e-03 0.0000000000e+00
7.8000000000e-01 1.0000000000e-03 0.0000000000e+00
7.9000000000e-01 1.0000000000e-03 0.0000000000e+00
8.0000000000e-01 1.0000000000e-03 0.0000000000e+00
8.1000000000e-01 1.0000000000e-03 0.0000000000e+00
8.2000000000e-01 1.0000000000e-03 0.0000000000e+00
8.3000000000e-01 1.0000000000e-03 0.0000000000e+00
8.4000000000e-01 1.0000000000e-03 0.0000000000e+00
8.5000000000e-01 1.0000000000e-03 0.0000000000e+00
8.6000000000e-01 1.0000000000e-03 0.0000000000e+00
8.7000000000e-01 1.0000000000e-03 0.0000000000e+00
8.8000000000e-01 1.0000000000e-03 0.0000000000e+00
8.9000000000e-01 1.0000000000e-03 0.0000000000e+00
9.0000000000e-01 1.0000000000e-03 0.0000000000e+00
9.1000000000e-01 1.0000000000e-03 0.0000000000e+00
9.2000000000e-01 1.0000000000e-03 0.0000000000e+00
[...]
CELL_DATA 1000

SCALARS massDensity float
LOOKUP_TABLE default
9.9999986051e+02
9.9999977299e+02
9.9999950894e+02
9.9999892293e+02
9.9999767575e+02
9.9999509454e+02
9.9998988848e+02
9.9997965677e+02
9.9996007242e+02
9.9992358741e+02
9.9985747754e+02
9.9974105051e+02
9.9954191008e+02
9.9921133797e+02
9.9867914474e+02
9.9784873648e+02
9.9659356390e+02
9.9475640937e+02
9.9215292428e+02
9.8858029304e+02
9.8383086472e+02
9.7770928817e+02
9.7005054252e+02
9.6073573465e+02
9.4970289589e+02
9.3695115399e+02
9.2253816603e+02
9.0657205303e+02
8.8919989004e+02
8.7059496426e+02
8.5094465160e+02
8.3044013459e+02
8.0926853520e+02
7.8760752120e+02
7.6562211847e+02
7.4346331075e+02
7.2126798304e+02
6.9915981373e+02
6.7725080156e+02
6.5564319853e+02
6.3443169387e+02
6.1370574939e+02
5.9355201742e+02
5.7405677646e+02
5.5530828787e+02
5.3739890039e+02
5.2042659401e+02
5.0449545393e+02
4.8971431086e+02
4.7619254074e+02
4.6403193736e+02
4.5331390959e+02
4.4408228131e+02
4.3632371297e+02
4.2994963733e+02
4.2478429911e+02
4.2056239551e+02
4.1693959546e+02
4.1350464437e+02
4.0980769640e+02
4.0539373329e+02
3.9984954861e+02
3.9286297488e+02
3.8428296332e+02
3.7416135435e+02
3.6275861147e+02
3.5050731578e+02
3.3794250582e+02
3.2561850501e+02
3.1403318398e+02
3.0357412320e+02
2.9449177664e+02
2.8689708430e+02
2.8077744721e+02
2.7602601222e+02
2.7248337488e+02
2.6999152466e+02
2.6843891177e+02
2.6770594214e+02
2.6731987001e+02
2.6570764445e+02
2.5959153795e+02
2.4500090318e+02
2.2062417340e+02
1.9071200045e+02
1.6318052144e+02
1.4383955667e+02
1.3314218149e+02
1.2822403233e+02
1.2621627617e+02
1.2544773247e+02
1.2516268221e+02
1.2505861057e+02
1.2502096599e+02
1.2500744666e+02
1.2500262479e+02
1.2500091770e+02
1.2500031866e+02
1.2500011179e+02
1.2500005128e+02
9.9999986051e+02
9.9999977299e+02
9.9999950894e+02
9.9999892293e+02
9.9999767575e+02
9.9999509454e+02
9.9998988848e+02
9.9997965677e+02
9.9996007242e+02
9.9992358741e+02
9.9985747754e+02
9.9974105051e+02
9.9954191008e+02
9.9921133797e+02
9.9867914474e+02
9.9784873648e+02
9.9659356390e+02
9.9475640937e+02
9.9215292428e+02
9.8858029304e+02
9.8383086472e+02
9.7770928817e+02
9.7005054252e+02
9.6073573465e+02
9.4970289589e+02
9.3695115399e+02
9.2253816603e+02
9.0657205303e+02
8.8919989004e+02
8.7059496426e+02
8.5094465160e+02
8.3044013459e+02
8.0926853520e+02
7.8760752120e+02
7.6562211847e+02
7.4346331075e+02
7.2126798304e+02
6.9915981373e+02
6.7725080156e+02
6.5564319853e+02
6.3443169387e+02
6.1370574939e+02
5.9355201742e+02
5.7405677646e+02
5.5530828787e+02
5.3739890039e+02
5.2042659401e+02
5.0449545393e+02
4.8971431086e+02
4.7619254074e+02
4.6403193736e+02
4.5331390959e+02
4.4408228131e+02
4.3632371297e+02
4.2994963733e+02
4.2478429911e+02
4.2056239551e+02
4.1693959546e+02
4.1350464437e+02
4.0980769640e+02
4.0539373329e+02
3.9984954861e+02
3.9286297488e+02
3.8428296332e+02
3.7416135435e+02
3.6275861147e+02
3.5050731578e+02
3.3794250582e+02
3.2561850501e+02
3.1403318398e+02
3.0357412320e+02
2.9449177664e+02
2.8689708430e+02
2.8077744721e+02
2.7602601222e+02
2.7248337488e+02
2.6999152466e+02
2.6843891177e+02
2.6770594214e+02
2.6731987001e+02
2.6570764445e+02
2.5959153795e+02
2.4500090318e+02
2.2062417340e+02
1.9071200045e+02
1.6318052144e+02
1.4383955667e+02
1.3314218149e+02
1.2822403233e+02
1.2621627617e+02
1.2544773247e+02
1.2516268221e+02
1.2505861057e+02
1.2502096599e+02
1.2500744666e+02
1.2500262479e+02
1.2500091770e+02
1.2500031866e+02
1.2500011179e+02
1.2500005128e+02
9.9999986051e+02
9.9999977299e+02
9.9999950894e+02
9.9999892293e+02
9.9999767575e+02
9.9999509454e+02
9.9998988848e+02
9.9997965677e+02
9.9996007242e+02
9.9992358741e+02
9.9985747754e+02
9.9974105051e+02
9.9954191008e+02
9.9921133797e+02
9.9867914474e+02
9.9784873648e+02
9.9659356390e+02
9.9475640937e+02
9.9215292428e+02
9.8858029304e+02
9.8383086472e+02
9.7770928817e+02
9.7005054252e+02
9.6073573465e+02
9.4970289589e+02
9.3695115399e+02
9.2253816603e+02
9.0657205303e+02
8.8919989004e+02
8.7059496426e+02
8.5094465160e+02
8.3044013459e+02
8.0926853520e+02
7.8760752120e+02
7.6562211847e+02
7.4346331075e+02
7.2126798304e+02
6.9915981373e+02
6.7725080156e+02
6.5564319853e+02
6.3443169387e+02
6.1370574939e+02
5.9355201742e+02
5.7405677646e+02
5.5530828787e+02
5.3739890039e+02
5.2042659401e+02
5.0449545393e+02
4.8971431086e+02
4.7619254074e+02
4.6403193736e+02
4.5331390959e+02
4.4408228131e+02
4.3632371297e+02
4.2994963733e+02
4.2478429911e+02
4.2056239551e+02
4.1693959546e+02
4.1350464437e+02
4.0980769640e+02
4.0539373329e+02
3.9984954861e+02
3.9286297488e+02
3.8428296332e+02
3.7416135435e+02
3.6275861147e+02
3.5050731578e+02
3.3794250582e+02
3.2561850501e+02
3.1403318398e+02
3.0357412320e+02
2.9449177664e+02
2.8689708430e+02
2.8077744721e+02
2.7602601222e+02
2.7248337488e+02
2.6999152466e+02
2.6843891177e+02
2.6770594214e+02
2.6731987001e+02
2.6570764445e+02
2.5959153795e+02
2.4500090318e+02
2.2062417340e+02
1.9071200045e+02
1.6318052144e+02
1.4383955667e+02
1.3314218149e+02
1.2822403233e+02
1.2621627617e+02
1.2544773247e+02
1.2516268221e+02
1.2505861057e+02
1.2502096599e+02
1.2500744666e+02
1.2500262479e+02
1.2500091770e+02
1.2500031866e+02
1.2500011179e+02
1.2500005128e+02
9.9999986051e+02
9.9999977299e+02
9.9999950894e+02
9.9999892293e+02
9.9999767575e+02
9.9999509454e+02
9.9998988848e+02
9.9997965677e+02
9.9996007242e+02
9.9992358741e+02
9.9985747754e+02
9.9974105051e+02
9.9954191008e+02
9.9921133797e+02
9.9867914474e+02
9.9784873648e+02
9.9659356390e+02
9.9475640937e+02
9.9215292428e+02
9.8858029304e+02
9.8383086472e+02
9.7770928817e+02
9.7005054252e+02
9.6073573465e+02
9.4970289589e+02
9.3695115399e+02
9.2253816603e+02
9.0657205303e+02
8.8919989004e+02
8.7059496426e+02
8.5094465160e+02
8.3044013459e+02
8.0926853520e+02
7.8760752120e+02
7.6562211847e+02
7.4346331075e+02
7.2126798304e+02
6.9915981373e+02
6.7725080156e+02
6.5564319853e+02
6.3443169387e+02
6.1370574939e+02
5.9355201742e+02
5.7405677646e+02
5.5530828787e+02
5.3739890039e+02
5.2042659401e+02
5.0449545393e+02
4.8971431086e+02
4.7619254074e+02
4.6403193736e+02
4.5331390959e+02
4.4408228131e+02
4.3632371297e+02
4.2994963733e+02
4.2478429911e+02
4.2056239551e+02
4.1693959546e+02
4.1350464437e+02
4.0980769640e+02
4.0539373329e+02
3.9984954861e+02
3.9286297488e+02
3.8428296332e+02
3.7416135435e+02
3.6275861147e+02
3.5050731578e+02
3.3794250582e+02
3.2561850501e+02
3.1403318398e+02
3.0357412320e+02
2.9449177664e+02
2.8689708430e+02
2.8077744721e+02
2.7602601222e+02
2.7248337488e+02
2.6999152466e+02
2.6843891177e+02
2.6770594214e+02
2.6731987001e+02
2.6570764445e+02
2.5959153795e+02
2.4500090318e+02
2.2062417340e+02
1.9071200045e+02
1.6318052144e+02
1.4383955667e+02
1.3314218149e+02
1.2822403233e+02
1.2621627617e+02
1.2544773247e+02
1.2516268221e+02
1.2505861057e+02
1.2502096599e+02
1.2500744666e+02
1.2500262479e+02
1.2500091770e+02
1.2500031866e+02
1.2500011179e+02
1.2500005128e+02
9.9999986051e+02
9.9999977299e+02
9.9999950894e+02
9.9999892293e+02
9.9999767575e+02
9.9999509454e+02
9.9998988848e+02
9.9997965677e+02
9.9996007242e+02
9.9992358741e+02
9.9985747754e+02
9.9974105051e+02
9.9954191008e+02
9.9921133797e+02
9.9867914474e+02
9.9784873648e+02
9.9659356390e+02
9.9475640937e+02
9.9215292428e+02
9.8858029304e+02
9.8383086472e+02
9.7770928817e+02
9.7005054252e+02
9.6073573465e+02
9.4970289589e+02
9.3695115399e+02
9.2253816603e+02
9.0657205303e+02
8.8919989004e+02
8.7059496426e+02
8.5094465160e+02
8.3044013459e+02
8.0926853520e+02
7.8760752120e+02
7.6562211847e+02
7.4346331075e+02
7.2126798304e+02
6.9915981373e+02
6.7725080156e+02
6.5564319853e+02
6.3443169387e+02
6.1370574939e+02
5.9355201742e+02
5.7405677646e+02
5.5530828787e+02
5.3739890039e+02
5.2042659401e+02
5.0449545393e+02
4.8971431086e+02
4.7619254074e+02
4.6403193736e+02
4.5331390959e+02
4.4408228131e+02
4.3632371297e+02
4.2994963733e+02
4.2478429911e+02
4.2056239551e+02
4.1693959546e+02
4.1350464437e+02
4.0980769640e+02
4.0539373329e+02
3.9984954861e+02
3.9286297488e+02
3.8428296332e+02
3.7416135435e+02
3.6275861147e+02
3.5050731578e+02
3.3794250582e+02
3.2561850501e+02
3.1403318398e+02
3.0357412320e+02
2.9449177664e+02
2.8689708430e+02
2.8077744721e+02
2.7602601222e+02
2.7248337488e+02
2.6999152466e+02
2.6843891177e+02
2.6770594214e+02
2.6731987001e+02
2.6570764445e+02
2.5959153795e+02
2.4500090318e+02
2.2062417340e+02
1.9071200045e+02
1.6318052144e+02
1.4383955667e+02
1.3314218149e+02
1.2822403233e+02
1.2621627617e+02
1.2544773247e+02
1.2516268221e+02
1.2505861057e+02
1.2502096599e+02
1.2500744666e+02
1.2500262479e+02
1.2500091770e+02
1.2500031866e+02
1.2500011179e+02
1.2500005128e+02
9.9999986051e+02
9.9999977299e+02
9.9999950894e+02
9.9999892293e+02
9.9999767575e+02
9.9999509454e+02
9.9998988848e+02
9.9997965677e+02
9.9996007242e+02
9.9992358741e+02
9.9985747754e+02
9.9974105051e+02
9.9954191008e+02
9.9921133797e+02
9.9867914474e+02
9.9784873648e+02
9.9659356390e+02
9.9475640937e+02
9.9215292428e+02
9.8858029304e+02
9.8383086472e+02
9.7770928817e+02
9.7005054252e+02
9.6073573465e+02
9.4970289589e+02
9.3695115399e+02
9.2253816603e+02
9.0657205303e+02
8.8919989004e+02
8.7059496426e+02
8.5094465160e+02
8.3044013459e+02
8.0926853520e+02
7.8760752120e+02
7.6562211847e+02
7.4346331075e+02
7.2126798304e+02
6.9915981373e+02
6.7725080156e+02
6.5564319853e+02
6.3443169387e+02
6.1370574939e+02
5.9355201742e+02
5.7405677646e+02
5.5530828787e+02
5.3739890039e+02
5.2042659401e+02
5.0449545393e+02
4.8971431086e+02
4.7619254074e+02
4.6403193736e+02
4.5331390959e+02
4.4408228131e+02
4.3632371297e+02
4.2994963733e+02
4.2478429911e+02
4.2056239551e+02
4.1693959546e+02
4.1350464437e+02
4.0980769640e+02
4.0539373329e+02
3.9984954861e+02
3.9286297488e+02
3.8428296332e+02
3.7416135435e+02
3.6275861147e+02
3.5050731578e+02
3.3794250582e+02
3.2561850501e+02
3.1403318398e+02
3.0357412320e+02
2.9449177664e+02
2.8689708430e+02
2.8077744721e+02
2.7602601222e+02
2.7248337488e+02
2.6999152466e+02
2.6843891177e+02
2.6770594214e+02
2.6731987001e+02
2.6570764445e+02
2.5959153795e+02
2.4500090318e+02
2.2062417340e+02
1.9071200045e+02
1.6318052144e+02
1.4383955667e+02
1.3314218149e+02
1.2822403233e+02
1.2621627617e+02
1.2544773247e+02
1.2516268221e+02
1.2505861057e+02
1.2502096599e+02
1.2500744666e+02
1.2500262479e+02
1.2500091770e+02
1.2500031866e+02
1.2500011179e+02
1.2500005128e+02
9.9999986051e+02
9.9999977299e+02
9.9999950894e+02
9.9999892293e+02
9.9999767575e+02
9.9999509454e+02
9.9998988848e+02
9.9997965677e+02
9.9996007242e+02
9.9992358741e+02
9.9985747754e+02
9.9974105051e+02
9.9954191008e+02
9.9921133797e+02
9.9867914474e+02
9.9784873648e+02
9.9659356390e+02
9.9475640937e+02
9.9215292428e+02
9.8858029304e+02
9.8383086472e+02
9.7770928817e+02
9.7005054252e+02
9.6073573465e+02
9.4970289589e+02
9.3695115399e+02
9.2253816603e+02
9.0657205303e+02
8.8919989004e+02
8.7059496426e+02
8.5094465160e+02
8.3044013459e+02
8.0926853520e+02
7.8760752120e+02
7.6562211847e+02
7.4346331075e+02
7.2126798304e+02
6.9915981373e+02
6.7725080156e+02
6.5564319853e+02
6.3443169387e+02
6.1370574939e+02
5.9355201742e+02
5.7405677646e+02
5.5530828787e+02
5.3739890039e+02
5.2042659401e+02
5.0449545393e+02
4.8971431086e+02
4.7619254074e+02
4.6403193736e+02
4.5331390959e+02
4.4408228131e+02
4.3632371297e+02
4.2994963733e+02
4.2478429911e+02
4.2056239551e+02
4.1693959546e+02
4.1350464437e+02
4.0980769640e+02
4.0539373329e+02
3.9984954861e+02
3.9286297488e+02
3.8428296332e+02
3.7416135435e+02
3.6275861147e+02
3.5050731578e+02
3.3794250582e+02
3.2561850501e+02
3.1403318398e+02
3.0357412320e+02
2.9449177664e+02
2.8689708430e+02
2.8077744721e+02
2.7602601222e+02
2.7248337488e+02
2.6999152466e+02
2.6843891177e+02
2.6770594214e+02
2.6731987001e+02
2.6570764445e+02
2.5959153795e+02
2.4500090318e+02
2.2062417340e+02
1.9071200045e+02
1.6318052144e+02
1.4383955667e+02
1.3314218149e+02
1.2822403233e+02
1.2621627617e+02
1.2544773247e+02
1.2516268221e+02
1.2505861057e+02
1.2502096599e+02
1.2500744666e+02
1.2500262479e+02
1.2500091770e+02
1.2500031866e+02
1.2500011179e+02
1.2500005128e+02
9.9999986051e+02
9.9999977299e+02
9.9999950894e+02
9.9999892293e+02
9.9999767575e+02
9.9999509454e+02
9.9998988848e+02
9.9997965677e+02
9.9996007242e+02
9.9992358741e+02
9.9985747754e+02
9.9974105051e+02
9.9954191008e+02
9.9921133797e+02
9.9867914474e+02
9.9784873648e+02
9.9659356390e+02
9.9475640937e+02
9.9215292428e+02
9.8858029304e+02
9.8383086472e+02
9.7770928817e+02
9.7005054252e+02
9.6073573465e+02
9.4970289589e+02
9.3695115399e+02
9.2253816603e+02
9.0657205303e+02
8.8919989004e+02
8.7059496426e+02
8.5094465160e+02
8.3044013459e+02
8.0926853520e+02
7.8760752120e+02
7.6562211847e+02
7.4346331075e+02
7.2126798304e+02
6.9915981373e+02
6.7725080156e+02
6.5564319853e+02
6.3443169387e+02
6.1370574939e+02
5.9355201742e+02
5.7405677646e+02
5.5530828787e+02
5.3739890039e+02
5.2042659401e+02
5.0449545393e+02
4.8971431086e+02
4.7619254074e+02
4.6403193736e+02
4.5331390959e+02
4.4408228131e+02
4.3632371297e+02
4.2994963733e+02
4.2478429911e+02
4.2056239551e+02
4.1693959546e+02
4.1350464437e+02
4.0980769640e+02
4.0539373329e+02
3.9984954861e+02
3.9286297488e+02
3.8428296332e+02
3.7416135435e+02
3.6275861147e+02
3.5050731578e+02
3.3794250582e+02
3.2561850501e+02
3.1403318398e+02
3.0357412320e+02
2.9449177664e+02
2.8689708430e+02
2.8077744721e+02
2.7602601222e+02
2.7248337488e+02
2.6999152466e+02
2.6843891177e+02
2.6770594214e+02
2.6731987001e+02
2.6570764445e+02
2.5959153795e+02
2.4500090318e+02
2.2062417340e+02
1.9071200045e+02
1.6318052144e+02
1.4383955667e+02
1.3314218149e+02
1.2822403233e+02
1.2621627617e+02
1.2544773247e+02
1.2516268221e+02
1.2505861057e+02
1.2502096599e+02
1.2500744666e+02
1.2500262479e+02
1.2500091770e+02
1.2500031866e+02
1.2500011179e+02
1.2500005128e+02
9.9999986051e+02
9.9999977299e+02
9.9999950894e+02
9.9999892293e+02
9.9999767575e+02
9.9999509454e+02
9.9998988848e+02
9.9997965677e+02
9.9996007242e+02
9.9992358741e+02
9.9985747754e+02
9.9974105051e+02
9.9954191008e+02
9.9921133797e+02
9.9867914474e+02
9.9784873648e+02
9.9659356390e+02
9.9475640937e+02
9.9215292428e+02
9.8858029304e+02
9.8383086472e+02
9.7770928817e+02
9.7005054252e+02
9.6073573465e+02
9.4970289589e+02
9.3695115399e+02
9.2253816603e+02
9.0657205303e+02
8.8919989004e+02
8.7059496426e+02
8.5094465160e+02
8.3044013459e+02
8.0926853520e+02
7.8760752120e+02
7.6562211847e+02
7.4346331075e+02
7.2126798304e+02
6.9915981373e+02
6.7725080156e+02
6.5564319853e+02
6.3443169387e+02
6.1370574939e+02
5.9355201742e+02
5.7405677646e+02
5.5530828787e+02
5.3739890039e+02
5.2042659401e+02
5.0449545393e+02
4.8971431086e+02
4.7619254074e+02
4.6403193736e+02
4.5331390959e+02
4.4408228131e+02
4.3632371297e+02
4.2994963733e+02
4.2478429911e+02
4.2056239551e+02
4.1693959546e+02
4.1350464437e+02
4.0980769640e+02
4.0539373329e+02
3.9984954861e+02
3.9286297488e+02
3.8428296332e+02
3.7416135435e+02
3.6275861147e+02
3.5050731578e+02
3.3794250582e+02
3.2561850501e+02
3.1403318398e+02
3.0357412320e+02
2.9449177664e+02
2.8689708430e+02
2.8077744721e+02
2.7602601222e+02
2.7248337488e+02
2.6999152466e+02
2.6843891177e+02
2.6770594214e+02
2.6731987001e+02
2.6570764445e+02
2.5959153795e+02
2.4500090318e+02
2.2062417340e+02
1.9071200045e+02
1.6318052144e+02
1.4383955667e+02
1.3314218149e+02
1.2822403233e+02
1.2621627617e+02
1.2544773247e+02
1.2516268221e+02
1.2505861057e+02
1.2502096599e+02
1.2500744666e+02
1.2500262479e+02
1.2500091770e+02
1.2500031866e+02
1.2500011179e+02
1.2500005128e+02
9.9999986051e+02
9.9999977299e+02
9.9999950894e+02
9.9999892293e+02
9.9999767575e+02
9.9999509454e+02
9.9998988848e+02
9.9997965677e+02
9.9996007242e+02
9.9992358741e+02
9.9985747754e+02
9.9974105051e+02
9.9954191008e+02
9.9921133797e+02
9.9867914474e+02
9.9784873648e+02
9.9659356390e+02
9.9475640937e+02
9.9215292428e+02
9.8858029304e+02
9.8383086472e+02
9.7770928817e+02
9.7005054252e+02
9.6073573465e+02
9.4970289589e+02
9.3695115399e+02
9.2253816603e+02
9.0657205303e+02
8.8919989004e+02
8.7059496426e+02
8.5094465160e+02
8.3044013459e+02
8.0926853520e+02
7.8760752120e+02
7.6562211847e+02
7.4346331075e+02
7.2126798304e+02
6.9915981373e+02
6.7725080156e+02
6.5564319853e+02
6.3443169387e+02
6.1370574939e+02
5.9355201742e+02
5.7405677646e+02
5.5530828787e+02
5.3739890039e+02
5.2042659401e+02
5.0449545393e+02
4.8971431086e+02
4.7619254074e+02
4.6403193736e+02
4.5331390959e+02
4.4408228131e+02
4.3632371297e+02
4.2994963733e+02
4.2478429911e+02
4.2056239551e+02
4.1693959546e+02
4.1350464437e+02
4.0980769640e+02
4.0539373329e+02
3.9984954861e+02
3.9286297488e+02
3.8428296332e+02
3.7416135435e+02
3.6275861147e+02
3.5050731578e+02
3.3794250582e+02
3.2561850501e+02
3.1403318398e+02
3.0357412320e+02
2.9449177664e+02
2.8689708430e+02
2.8077744721e+02
2.7602601222e+02
2.7248337488e+02
2.6999152466e+02
2.6843891177e+02
2.6770594214e+02
2.6731987001e+02
2.6570764445e+02
2.5959153795e+02
2.4500090318e+02
2.2062417340e+02
1.9071200045e+02
1.6318052144e+02
1.4383955667e+02
1.3314218149e+02
1.2822403233e+02
1.2621627617e+02
1.2544773247e+02
1.2516268221e+02
1.2505861057e+02
1.2502096599e+02
1.2500744666e+02
1.2500262479e+02
1.2500091770e+02
1.2500031866e+02
1.2500011179e+02
1.2500005128e+02

SCALARS molarDensity float
LOOKUP_TABLE default
1.2977622322e+05
1.2977621187e+05
1.2977617760e+05
1.2977610155e+05
1.2977593969e+05
1.2977560471e+05
1.2977492909e+05
1.2977360126e+05
1.2977105968e+05
1.2976632479e+05
1.2975774530e+05
1.2974263584e+05
1.2971679214e+05
1.2967389173e+05
1.2960482570e+05
1.2949705843e+05
1.2933416685e+05
1.2909574784e+05
1.2875787733e+05
1.2829423468e+05
1.2767787172e+05
1.2688343653e+05
1.2588951331e+05
1.2468067255e+05
1.2324887221e+05
1.2159399907e+05
1.1972353567e+05
1.1765151353e+05
1.1539701952e+05
1.1298254218e+05
1.1043239846e+05
1.0777139931e+05
1.0502382872e+05
1.0221274374e+05
9.9359560812e+04
9.6483874034e+04
9.3603447828e+04
9.0734332712e+04
8.7891063462e+04
8.5086909957e+04
8.2334160610e+04
7.9644425437e+04
7.7028949853e+04
7.4498930757e+04
7.2065822377e+04
6.9741609386e+04
6.7539007257e+04
6.5471523778e+04
6.3553282587e+04
6.1798478085e+04
6.0220320686e+04
5.8829375328e+04
5.7631329308e+04
5.6624451471e+04
5.5797247893e+04
5.5126909713e+04
5.4579006933e+04
5.4108853559e+04
5.3663078518e+04
5.3183302505e+04
5.2610474963e+04
5.1890971514e+04
5.0984280236e+04
4.9870798586e+04
4.8557254217e+04
4.7077449105e+04
4.5487522000e+04
4.3856908190e+04
4.2257545686e+04
4.0754046269e+04
3.9396708673e+04
3.8218035874e+04
3.7232425249e+04
3.6438241748e+04
3.5821618374e+04
3.5361868216e+04
3.5038485260e+04
3.4836992995e+04
3.4741870952e+04
3.4691767962e+04
3.4482539388e+04
3.3688814075e+04
3.1795296337e+04
2.8631775970e+04
2.4749886594e+04
2.1176954731e+04
1.8666957019e+04
1.7278691876e+04
1.6640432964e+04
1.6379873915e+04
1.6280135203e+04
1.6243142451e+04
1.6229636425e+04
1.6224751053e+04
1.6222996565e+04
1.6222370801e+04
1.6222149261e+04
1.6222071520e+04
1.6222044673e+04
1.6222036821e+04
1.2977622322e+05
1.2977621187e+05
1.2977617760e+05
1.2977610155e+05
1.2977593969e+05
1.2977560471e+05
1.2977492909e+05
1.2977360126e+05
1.2977105968e+05
1.2976632479e+05
1.2975774530e+05
1.2974263584e+05
1.2971679214e+05
1.2967389173e+05
1.2960482570e+05
1.2949705843e+05
1.2933416685e+05
1.2909574784e+05
1.2875787733e+05
1.2829423468e+05
1.2767787172e+05
1.2688343653e+05
1.2588951331e+05
1.2468067255e+05
1.2324887221e+05
1.2159399907e+05
1.1972353567e+05
1.1765151353e+05
1.1539701952e+05
1.1298254218e+05
1.1043239846e+05
1.0777139931e+05
1.0502382872e+05
1.0221274374e+05
9.9359560812e+04
9.6483874034e+04
9.3603447828e+04
9.0734332712e+04
8.7891063462e+04
8.5086909957e+04
8.2334160610e+04
7.9644425437e+04
7.7028949853e+04
7.4498930757e+04
7.2065822377e+04
6.9741609386e+04
6.7539007257e+04
6.5471523778e+04
6.3553282587e+04
6.1798478085e+04
6.0220320686e+04
5.8829375328e+04
5.7631329308e+04
5.6624451471e+04
5.5797247893e+04
5.5126909713e+04
5.4579006933e+04
5.4108853559e+04
5.3663078518e+04
5.3183302505e+04
5.2610474963e+04
5.1890971514e+04
5.0984280236e+04
4.9870798586e+04
4.8557254217e+04
4.7077449105e+04
4.5487522000e+04
4.3856908190e+04
4.2257545686e+04