# vtk DataFile Version 2.0
Blank
ASCII
DATASET STRUCTURED_GRID
DIMENSIONS 101 11 2
POINTS 2222 float
0.0000000000e+00 0.0000000000e+00 0.0000000000e+00
1.0000000000e-02 0.0000000000e+00 0.0000000000e+00
2.0000000000e-02 0.0000000000e+00 0.0000000000e+00
3.0000000000e-02 0.0000000000e+00 0.0000000000e+00
4.0000000000e-02 0.0000000000e+00 0.0000000000e+00
5.0000000000e-02 0.0000000000e+00 0.0000000000e+00
6.0000000000e-02 0.0000000000e+00 0.0000000000e+00
7.0000000000e-02 0.0000000000e+00 0.0000000000e+00
8.0000000000e-02 0.0000000000e+00 0.0000000000e+00
9.0000000000e-02 0.0000000000e+00 0.0000000000e+00
1.0000000000e-01 0.0000000000e+00 0.0000000000e+00
1.1000000000e-01 0.0000000000e+00 0.0000000000e+00
1.2000000000e-01 0.0000000000e+00 0.0000000000e+00
1.3000000000e-01 0.0000000000e+00 0.0000000000e+00
1.4000000000e-01 0.0000000000e+00 0.0000000000e+00
1.5000000000e-01 0.0000000000e+00 0.0000000000e+00
1.6000000000e-01 0.0000000000e+00 0.0000000000e+00
1.7000000000e-01 0.0000000000e+00 0.0000000000e+00
1.8000000000e-01 0.0000000000e+00 0.0000000000e+00
1.9000000000e-01 0.0000000000e+00 0.0000000000e+00
2.0000000000e-01 0.0000000000e+00 0.0000000000e+00
2.1000000000e-01 0.0000000000e+00 0.0000000000e+00
2.2000000000e-01 0.0000000000e+00 0.0000000000e+00
2.3000000000e-01 0.0000000000e+00 0.0000000000e+00
2.4000000000e-01 0.0000000000e+00 0.0000000000e+00
2.5000000000e-01 0.0000000000e+00 0.0000000000e+00
2.6000000000e-01 0.0000000000e+00 0.0000000000e+00
2.7000000000e-01 0.0000000000e+00 0.0000000000e+00
2.8000000000e-01 0.0000000000e+00 0.0000000000e+00
2.9000000000e-01 0.0000000000e+00 0.0000000000e+00
3.0000000000e-01 0.0000000000e+00 0.0000000000e+00
3.1000000000e-01 0.0000000000e+00 0.0000000000e+00
3.2000000000e-01 0.0000000000e+00 0.0000000000e+00
3.3000000000e-01 0.0000000000e+00 0.0000000000e+00
3.4000000000e-01 0.0000000000e+00 0.0000000000e+00
3.5000000000e-01 0.0000000000e+00 0.0000000000e+00
3.6000000000e-01 0.0000000000e+00 0.0000000000e+00
3.7000000000e-01 0.0000000000e+00 0.0000000000e+00
3.8000000000e-01 0.0000000000e+00 0.0000000000e+00
3.9000000000e-01 0.0000000000e+00 0.0000000000e+00
4.0000000000e-01 0.0000000000e+00 0.0000000000e+00
4.1000000000e-01 0.0000000000e+00 0.0000000000e+00
4.2000000000e-01 0.0000000000e+00 0.0000000000e+00
4.3000000000e-01 0.0000000000e+00 0.0000000000e+00
4.4000000000e-01 0.0000000000e+00 0.0000000000e+00
4.5000000000e-01 0.0000000000e+00 0.0000000000e+00
4.6000000000e-01 0.0000000000e+00 0.0000000000e+00
4.7000000000e-01 0.0000000000e+00 0.0000000000e+00
4.8000000000e-01 0.0000000000e+00 0.0000000000e+00
4.9000000000e-01 0.0000000000e+00 0.0000000000e+00
5.0000000000e-01 0.0000000000e+00 0.0000000000e+00
5.1000000000e-01 0.0000000000e+00 0.0000000000e+00
5.2000000000e-01 0.0000000000e+00 0.0000000000e+00
5.3000000000e-01 0.0000000000e+00 0.0000000000e+00
5.4000000000e-01 0.0000000000e+00 0.0000000000e+00
5.5000000000e-01 0.0000000000e+00 0.0000000000e+00
5.6000000000e-01 0.0000000000e+00 0.0000000000e+00
5.7000000000e-01 0.0000000000e+00 0.0000000000e+00
5.8000000000e-01 0.0000000000e+00 0.0000000000e+00
5.9000000000e-01 0.0000000000e+00 0.0000000000e+00
6.0000000000e-01 0.0000000000e+00 0.0000000000e+00
6.1000000000e-01 0.0000000000e+00 0.0000000000e+00
6.2000000000e-01 0.0000000000e+00 0.0000000000e+00
6.3000000000e-01 0.0000000000e+00 0.0000000000e+00
6.4000000000e-01 0.0000000000e+00 0.0000000000e+00
6.5000000000e-01 0.0000000000e+00 0.0000000000e+00
6.6000000000e-01 0.0000000000e+00 0.0000000000e+00
6.7000000000e-01 0.0000000000e+00 0.0000000000e+00
6.8000000000e-01 0.0000000000e+00 0.0000000000e+00
6.9000000000e-01 0.0000000000e+00 0.0000000000e+00
7.0000000000e-01 0.0000000000e+00 0.0000000000e+00
7.1000000000e-01 0.0000000000e+00 0.0000000000e+00
7.2000000000e-01 0.0000000000e+00 0.0000000000e+00
7.3000000000e-01 0.0000000000e+00 0.0000000000e+00
7.4000000000e-01 0.0000000000e+00 0.0000000000e+00
7.5000000000e-01 0.0000000000e+00 0.0000000000e+00
7.6000000000e-01 0.0000000000e+00 0.0000000000e+00
7.7000000000e-01 0.0000000000e+00 0.0000000000e+00
7.8000000000e-01 0.0000000000e+00 0.0000000000e+00
7.9000000000e-01 0.0000000000e+00 0.0000000000e+00
8.0000000000e-01 0.0000000000e+00 0.0000000000e+00
8.1000000000e-01 0.0000000000e+00 0.0000000000e+00
8.2000000000e-01 0.0000000000e+00 0.0000000000e+00
8.3000000000e-01 0.0000000000e+00 0.0000000000e+00
8.4000000000e-01 0.0000000000e+00 0.0000000000e+00
8.5000000000e-01 0.0000000000e+00 0.0000000000e+00
8.6000000000e-01 0.0000000000e+00 0.0000000000e+00
8.7000000000e-01 0.0000000000e+00 0.0000000000e+00
8.8000000000e-01 0.0000000000e+00 0.0000000000e+00
8.9000000000e-01 0.0000000000e+00 0.0000000000e+00
9.0000000000e-01 0.0000000000e+00 0.0000000000e+00
9.1000000000e-01 0.0000000000e+00 0.0000000000e+00
9.2000000000e-01 0.0000000000e+00 0.0000000000e+00
9.3000000000e-01 0.0000000000e+00 0.0000000000e+00
9.4000000000e-01 0.0000000000e+00 0.0000000000e+00
9.5000000000e-01 0.0000000000e+00 0.0000000000e+00
9.6000000000e-01 0.0000000000e+00 0.0000000000e+00
9.7000000000e-01 0.0000000000e+00 0.0000000000e+00
9.8000000000e-01 0.0000000000e+00 0.0000000000e+00
9.9000000000e-01 0.0000000000e+00 0.0000000000e+00
1.0000000000e+00 0.0000000000e+00 0.0000000000e+00
0.0000000000e+00 1.0000000000e-03 0.0000000000e+00
1.0000000000e-02 1.0000000000e-03 0.0000000000e+00
2.0000000000e-02 1.0000000000e-03 0.0000000000e+00
3.0000000000e-02 1.0000000000e-03 0.0000000000e+00
4.0000000000e-02 1.0000000000e-03 0.0000000000e+00
5.0000000000e-02 1.0000000000e-03 0.0000000000e+00
6.0000000000e-02 1.0000000000e-03 0.0000000000e+00
7.0000000000e-02 1.0000000000e-03 0.0000000000e+00
8.0000000000e-02 1.0000000000e-03 0.0000000000e+00
9.0000000000e-02 1.0000000000e-03 0.0000000000e+00
1.0000000000e-01 1.0000000000e-03 0.0000000000e+00
1.1000000000e-01 1.0000000000e-03 0.0000000000e+00
1.2000000000e-01 1.0000000000e-03 0.0000000000e+00
1.3000000000e-01 1.0000000000e-03 0.0000000000e+00
1.4000000000e-01 1.0000000000e-03 0.0000000000e+00
1.5000000000e-01 1.0000000000e-03 0.0000000000e+00
1.6000000000e-01 1.0000000000e-03 0.0000000000e+00
1.7000000000e-01 1.0000000000e-03 0.0000000000e+00
1.8000000000e-01 1.0000000000e-03 0.0000000000e+00
1.9000000000e-01 1.0000000000e-03 0.0000000000e+00
2.0000000000e-01 1.0000000000e-03 0.0000000000e+00
2.1000000000e-01 1.0000000000e-03 0.0000000000e+00
2.2000000000e-01 1.0000000000e-03 0.0000000000e+00
2.3000000000e-01 1.0000000000e-03 0.0000000000e+00
2.4000000000e-01 1.0000000000e-03 0.0000000000e+00
2.5000000000e-01 1.0000000000e-03 0.0000000000e+00
2.6000000000e-01 1.0000000000e-03 0.0000000000e+00
2.7000000000e-01 1.0000000000e-03 0.0000000000e+00
2.8000000000e-01 1.0000000000e-03 0.0000000000e+00
2.9000000000e-01 1.0000000000e-03 0.0000000000e+00
3.0000000000e-01 1.0000000000e-03 0.0000000000e+00
3.1000000000e-01 1.0000000000e-03 0.0000000000e+00
3.2000000000e-01 1.0000000000e-03 0.0000000000e+00
3.3000000000e-01 1.0000000000e-03 0.0000000000e+00
3.4000000000e-01 1.0000000000e-03 0.0000000000e+00
3.5000000000e-01 1.0000000000e-03 0.0000000000e+00
3.6000000000e-01 1.0000000000e-03 0.0000000000e+00
3.7000000000e-01 1.0000000000e-03 0.0000000000e+00
3.8000000000e-01 1.0000000000e-03 0.0000000000e+00
3.9000000000e-01 1.0000000000e-03 0.0000000000e+00
4.0000000000e-01 1.0000000000e-03 0.0000000000e+00
4.1000000000e-01 1.0000000000e-03 0.0000000000e+00
4.2000000000e-01 1.0000000000e-03 0.0000000000e+00
4.3000000000e-01 1.0000000000e-03 0.0000000000e+00
4.4000000000e-01 1.0000000000e-03 0.0000000000e+00
4.5000000000e-01 1.0000000000e-03 0.0000000000e+00
4.6000000000e-01 1.0000000000e-03 0.0000000000e+00
4.7000000000e-01 1.0000000000e-03 0.0000000000e+00
4.8000000000e-01 1.0000000000e-03 0.0000000000e+00
4.9000000000e-01 1.0000000000e-03 0.0000000000e+00
5.0000000000e-01 1.0000000000e-03 0.0000000000e+00
5.1000000000e-01 1.0000000000e-03 0.0000000000e+00
5.2000000000e-01 1.0000000000e-03 0.0000000000e+00
5.3000000000e-01 1.0000000000e-03 0.0000000000e+00
5.4000000000e-01 1.0000000000e-03 0.0000000000e+00
5.5000000000e-01 1.0000000000e-03 0.0000000000e+00
5.6000000000e-01 1.0000000000e-03 0.0000000000e+00
5.7000000000e-01 1.0000000000e-03 0.0000000000e+00
5.8000000000e-01 1.0000000000e-03 0.0000000000e+00
5.9000000000e-01 1.0000000000e-03 0.0000000000e+00
6.0000000000e-01 1.0000000000e-03 0.0000000000e+00
6.1000000000e-01 1.0000000000e-03 0.0000000000e+00
6.2000000000e-01 1.0000000000e-03 0.0000000000e+00
6.3000000000e-01 1.0000000000e-03 0.0000000000e+00
6.4000000000e-01 1.0000000000e-03 0.0000000000e+00
6.5000000000e-01 1.0000000000e-03 0.0000000000e+00
6.6000000000e-01 1.0000000000e-03 0.0000000000e+00
6.7000000000e-01 1.0000000000e-03 0.0000000000e+00
6.8000000000e-01 1.0000000000e-03 0.0000000000e+00
6.9000000000e-01 1.0000000000e-03 0.0000000000e+00
7.0000000000e-01 1.0000000000e-03 0.0000000000e+00
7.1000000000e-01 1.0000000000e-03 0.0000000000e+00
7.2000000000e-01 1.0000000000e-03 0.0000000000e+00
7.3000000000e-01 1.0000000000e-03 0.0000000000e+00
7.4000000000e-01 1.0000000000e-03 0.0000000000e+00
7.5000000000e-01 1.0000000000e-03 0.0000000000e+00
7.6000000000e-01 1.0000000000e-03 0.0000000000e+00
7.7000000000e-01 1.0000000000e-03 0.0000000000e+00
7.8000000000e-01 1.0000000000e-03 0.0000000000e+00
7.9000000000e-01 1.0000000000e-03 0.0000000000e+00
8.0000000000e-01 1.0000000000e-03 0.0000000000e+00
8.1000000000e-01 1.0000000000e-03 0.0000000000e+00
8.2000000000e-01 1.0000000000e-03 0.0000000000e+00
8.3000000000e-01 1.0000000000e-03 0.0000000000e+00
8.4000000000e-01 1.0000000000e-03 0.0000000000e+00
8.5000000000e-01 1.0000000000e-03 0.0000000000e+00
8.6000000000e-01 1.0000000000e-03 0.0000000000e+00
8.7000000000e-01 1.0000000000e-03 0.0000000000e+00
8.8000000000e-01 1.0000000000e-03 0.0000000000e+00
8.9000000000e-01 1.0000000000e-03 0.0000000000e+00
9.0000000000e-01 1.0000000000e-03 0.0000000000e+00
9.1000000000e-01 1.0000000000e-03 0.0000000000e+00
9.2000000000e-01 1.0000000000e-03 0.0000000000e+00
[...]
CELL_DATA 1000

SCALARS massDensity float
LOOKUP_TABLE default
9.9999999996e+02
9.9999999996e+02
9.9999999996e+02
9.9999999996e+02
9.9999999996e+02
9.9999999996e+02
9.9999999996e+02
9.9999999996e+02
9.9999999996e+02
9.9999999996e+02
9.9999999996e+02
9.9999999996e+02
9.9999999996e+02
9.9999999996e+02
9.9999999996e+02
9.9999999996e+02
9.9999999996e+02
9.9999999996e+02
9.9999999996e+02
9.9999999996e+02
9.9999999995e+02
9.9999999993e+02
9.9999999981e+02
9.9999999928e+02
9.9999999694e+02
9.9999998715e+02
9.9999994818e+02
9.9999980048e+02
9.9999926891e+02
9.9999745573e+02
9.9999160701e+02
9.9997380978e+02
9.9992286169e+02
9.9978606568e+02
9.9944270615e+02
9.9863988301e+02
9.9689757797e+02
9.9339975246e+02
9.8692151931e+02
9.7587024826e+02
9.5850468690e+02
9.3331821386e+02
8.9946440302e+02
8.5705032596e+02
8.0718240233e+02
7.5178149849e+02
6.9328270847e+02
6.3434988152e+02
5.7765544553e+02
5.2565763707e+02
4.8022236721e+02
4.4196384827e+02
4.0996516081e+02
3.8207122722e+02
3.5655743745e+02
3.3316309488e+02
3.1200890332e+02
2.9139998960e+02
2.6712768779e+02
2.3600283358e+02
2.0038939500e+02
1.6785985715e+02
1.4514132911e+02
1.3298348766e+02
1.2778658399e+02
1.2589251886e+02
1.2526896932e+02
1.2507712790e+02
1.2502113076e+02
1.2500553794e+02
1.2500138887e+02
1.2500033338e+02
1.2500007661e+02
1.2500001687e+02
1.2500000356e+02
1.2500000072e+02
1.2500000014e+02
1.2500000003e+02
1.2500000001e+02
1.2500000001e+02
1.2500000000e+02
1.2500000000e+02
1.2500000000e+02
1.2500000000e+02
1.2500000000e+02
1.2500000000e+02
1.2500000000e+02
1.2500000000e+02
1.2500000000e+02
1.2500000000e+02
1.2500000000e+02
1.2500000000e+02
1.2500000000e+02
1.2500000000e+02
1.2500000000e+02
1.2500000000e+02
1.2500000000e+02
1.2500000000e+02
1.2500000000e+02
1.2500000000e+02
9.9999999996e+02
9.9999999996e+02
9.9999999996e+02
9.9999999996e+02
9.9999999996e+02
9.9999999996e+02
9.9999999996e+02
9.9999999996e+02
9.9999999996e+02
9.9999999996e+02
9.9999999996e+02
9.9999999996e+02
9.9999999996e+02
9.9999999996e+02
9.9999999996e+02
9.9999999996e+02
9.9999999996e+02
9.9999999996e+02
9.9999999996e+02
9.9999999996e+02
9.9999999995e+02
9.9999999993e+02
9.9999999981e+02
9.9999999928e+02
9.9999999694e+02
9.9999998715e+02
9.9999994818e+02
9.9999980048e+02
9.9999926891e+02
9.9999745573e+02
9.9999160701e+02
9.9997380978e+02
9.9992286169e+02
9.9978606568e+02
9.9944270615e+02
9.9863988301e+02
9.9689757797e+02
9.9339975246e+02
9.8692151931e+02
9.7587024826e+02
9.5850468690e+02
9.3331821386e+02
8.9946440302e+02
8.5705032596e+02
8.0718240233e+02
7.5178149849e+02
6.9328270847e+02
6.3434988152e+02
5.7765544553e+02
5.2565763707e+02
4.8022236721e+02
4.4196384827e+02
4.0996516081e+02
3.8207122722e+02
3.5655743745e+02
3.3316309488e+02
3.1200890332e+02
2.9139998960e+02
2.6712768779e+02
2.3600283358e+02
2.0038939500e+02
1.6785985715e+02
1.4514132911e+02
1.3298348766e+02
1.2778658399e+02
1.2589251886e+02
1.2526896932e+02
1.2507712790e+02
1.2502113076e+02
1.2500553794e+02
1.2500138887e+02
1.2500033338e+02
1.2500007661e+02
1.2500001687e+02
1.2500000356e+02
1.2500000072e+02
1.2500000014e+02
1.2500000003e+02
1.2500000001e+02
1.2500000001e+02
1.2500000000e+02
1.2500000000e+02
1.2500000000e+02
1.2500000000e+02
1.2500000000e+02
1.2500000000e+02
1.2500000000e+02
1.2500000000e+02
1.2500000000e+02
1.2500000000e+02
1.2500000000e+02
1.2500000000e+02
1.2500000000e+02
1.2500000000e+02
1.2500000000e+02
1.2500000000e+02
1.2500000000e+02
1.2500000000e+02
1.2500000000e+02
1.2500000000e+02
9.9999999996e+02
9.9999999996e+02
9.9999999996e+02
9.9999999996e+02
9.9999999996e+02
9.9999999996e+02
9.9999999996e+02
9.9999999996e+02
9.9999999996e+02
9.9999999996e+02
9.9999999996e+02
9.9999999996e+02
9.9999999996e+02
9.9999999996e+02
9.9999999996e+02
9.9999999996e+02
9.9999999996e+02
9.9999999996e+02
9.9999999996e+02
9.9999999996e+02
9.9999999995e+02
9.9999999993e+02
9.9999999981e+02
9.9999999928e+02
9.9999999694e+02
9.9999998715e+02
9.9999994818e+02
9.9999980048e+02
9.9999926891e+02
9.9999745573e+02
9.9999160701e+02
9.9997380978e+02
9.9992286169e+02
9.9978606568e+02
9.9944270615e+02
9.9863988301e+02
9.9689757797e+02
9.9339975246e+02
9.8692151931e+02
9.7587024826e+02
9.5850468690e+02
9.3331821386e+02
8.9946440302e+02
8.5705032596e+02
8.0718240233e+02
7.5178149849e+02
6.9328270847e+02
6.3434988152e+02
5.7765544553e+02
5.2565763707e+02
4.8022236721e+02
4.4196384827e+02
4.0996516081e+02
3.8207122722e+02
3.5655743745e+02
3.3316309488e+02
3.1200890332e+02
2.9139998960e+02
2.6712768779e+02
2.3600283358e+02
2.0038939500e+02
1.6785985715e+02
1.4514132911e+02
1.3298348766e+02
1.2778658399e+02
1.2589251886e+02
1.2526896932e+02
1.2507712790e+02
1.2502113076e+02
1.2500553794e+02
1.2500138887e+02
1.2500033338e+02
1.2500007661e+02
1.2500001687e+02
1.2500000356e+02
1.2500000072e+02
1.2500000014e+02
1.2500000003e+02
1.2500000001e+02
1.2500000001e+02
1.2500000000e+02
1.2500000000e+02
1.2500000000e+02
1.2500000000e+02
1.2500000000e+02
1.2500000000e+02
1.2500000000e+02
1.2500000000e+02
1.2500000000e+02
1.2500000000e+02
1.2500000000e+02
1.2500000000e+02
1.2500000000e+02
1.2500000000e+02
1.2500000000e+02
1.2500000000e+02
1.2500000000e+02
1.2500000000e+02
1.2500000000e+02
1.2500000000e+02
9.9999999996e+02
9.9999999996e+02
9.9999999996e+02
9.9999999996e+02
9.9999999996e+02
9.9999999996e+02
9.9999999996e+02
9.9999999996e+02
9.9999999996e+02
9.9999999996e+02
9.9999999996e+02
9.9999999996e+02
9.9999999996e+02
9.9999999996e+02
9.9999999996e+02
9.9999999996e+02
9.9999999996e+02
9.9999999996e+02
9.9999999996e+02
9.9999999996e+02
9.9999999995e+02
9.9999999993e+02
9.9999999981e+02
9.9999999928e+02
9.9999999694e+02
9.9999998715e+02
9.9999994818e+02
9.9999980048e+02
9.9999926891e+02
9.9999745573e+02
9.9999160701e+02
9.9997380978e+02
9.9992286169e+02
9.9978606568e+02
9.9944270615e+02
9.9863988301e+02
9.9689757797e+02
9.9339975246e+02
9.8692151931e+02
9.7587024826e+02
9.5850468690e+02
9.3331821386e+02
8.9946440302e+02
8.5705032596e+02
8.0718240233e+02
7.5178149849e+02
6.9328270847e+02
6.3434988152e+02
5.7765544553e+02
5.2565763707e+02
4.8022236721e+02
4.4196384827e+02
4.0996516081e+02
3.8207122722e+02
3.5655743745e+02
3.3316309488e+02
3.1200890332e+02
2.9139998960e+02
2.6712768779e+02
2.3600283358e+02
2.0038939500e+02
1.6785985715e+02
1.4514132911e+02
1.3298348766e+02
1.2778658399e+02
1.2589251886e+02
1.2526896932e+02
1.2507712790e+02
1.2502113076e+02
1.2500553794e+02
1.2500138887e+02
1.2500033338e+02
1.2500007661e+02
1.2500001687e+02
1.2500000356e+02
1.2500000072e+02
1.2500000014e+02
1.2500000003e+02
1.2500000001e+02
1.2500000001e+02
1.2500000000e+02
1.2500000000e+02
1.2500000000e+02
1.2500000000e+02
1.2500000000e+02
1.2500000000e+02
1.2500000000e+02
1.2500000000e+02
1.2500000000e+02
1.2500000000e+02
1.2500000000e+02
1.2500000000e+02
1.2500000000e+02
1.2500000000e+02
1.2500000000e+02
1.2500000000e+02
1.2500000000e+02
1.2500000000e+02
1.2500000000e+02
1.2500000000e+02
9.9999999996e+02
9.9999999996e+02
9.9999999996e+02
9.9999999996e+02
9.9999999996e+02
9.9999999996e+02
9.9999999996e+02
9.9999999996e+02
9.9999999996e+02
9.9999999996e+02
9.9999999996e+02
9.9999999996e+02
9.9999999996e+02
9.9999999996e+02
9.9999999996e+02
9.9999999996e+02
9.9999999996e+02
9.9999999996e+02
9.9999999996e+02
9.9999999996e+02
9.9999999995e+02
9.9999999993e+02
9.9999999981e+02
9.9999999928e+02
9.9999999694e+02
9.9999998715e+02
9.9999994818e+02
9.9999980048e+02
9.9999926891e+02
9.9999745573e+02
9.9999160701e+02
9.9997380978e+02
9.9992286169e+02
9.9978606568e+02
9.9944270615e+02
9.9863988301e+02
9.9689757797e+02
9.9339975246e+02
9.8692151931e+02
9.7587024826e+02
9.5850468690e+02
9.3331821386e+02
8.9946440302e+02
8.5705032596e+02
8.0718240233e+02
7.5178149849e+02
6.9328270847e+02
6.3434988152e+02
5.7765544553e+02
5.2565763707e+02
4.8022236721e+02
4.4196384827e+02
4.0996516081e+02
3.8207122722e+02
3.5655743745e+02
3.3316309488e+02
3.1200890332e+02
2.9139998960e+02
2.6712768779e+02
2.3600283358e+02
2.0038939500e+02
1.6785985715e+02
1.4514132911e+02
1.3298348766e+02
1.2778658399e+02
1.2589251886e+02
1.2526896932e+02
1.2507712790e+02
1.2502113076e+02
1.2500553794e+02
1.2500138887e+02
1.2500033338e+02
1.2500007661e+02
1.2500001687e+02
1.2500000356e+02
1.2500000072e+02
1.2500000014e+02
1.2500000003e+02
1.2500000001e+02
1.2500000001e+02
1.2500000000e+02
1.2500000000e+02
1.2500000000e+02
1.2500000000e+02
1.2500000000e+02
1.2500000000e+02
1.2500000000e+02
1.2500000000e+02
1.2500000000e+02
1.2500000000e+02
1.2500000000e+02
1.2500000000e+02
1.2500000000e+02
1.2500000000e+02
1.2500000000e+02
1.2500000000e+02
1.2500000000e+02
1.2500000000e+02
1.2500000000e+02
1.2500000000e+02
9.9999999996e+02
9.9999999996e+02
9.9999999996e+02
9.9999999996e+02
9.9999999996e+02
9.9999999996e+02
9.9999999996e+02
9.9999999996e+02
9.9999999996e+02
9.9999999996e+02
9.9999999996e+02
9.9999999996e+02
9.9999999996e+02
9.9999999996e+02
9.9999999996e+02
9.9999999996e+02
9.9999999996e+02
9.9999999996e+02
9.9999999996e+02
9.9999999996e+02
9.9999999995e+02
9.9999999993e+02
9.9999999981e+02
9.9999999928e+02
9.9999999694e+02
9.9999998715e+02
9.9999994818e+02
9.9999980048e+02
9.9999926891e+02
9.9999745573e+02
9.9999160701e+02
9.9997380978e+02
9.9992286169e+02
9.9978606568e+02
9.9944270615e+02
9.9863988301e+02
9.9689757797e+02
9.9339975246e+02
9.8692151931e+02
9.7587024826e+02
9.5850468690e+02
9.3331821386e+02
8.9946440302e+02
8.5705032596e+02
8.0718240233e+02
7.5178149849e+02
6.9328270847e+02
6.3434988152e+02
5.7765544553e+02
5.2565763707e+02
4.8022236721e+02
4.4196384827e+02
4.0996516081e+02
3.8207122722e+02
3.5655743745e+02
3.3316309488e+02
3.1200890332e+02
2.9139998960e+02
2.6712768779e+02
2.3600283358e+02
2.0038939500e+02
1.6785985715e+02
1.4514132911e+02
1.3298348766e+02
1.2778658399e+02
1.2589251886e+02
1.2526896932e+02
1.2507712790e+02
1.2502113076e+02
1.2500553794e+02
1.2500138887e+02
1.2500033338e+02
1.2500007661e+02
1.2500001687e+02
1.2500000356e+02
1.2500000072e+02
1.2500000014e+02
1.2500000003e+02
1.2500000001e+02
1.2500000001e+02
1.2500000000e+02
1.2500000000e+02
1.2500000000e+02
1.2500000000e+02
1.2500000000e+02
1.2500000000e+02
1.2500000000e+02
1.2500000000e+02
1.2500000000e+02
1.2500000000e+02
1.2500000000e+02
1.2500000000e+02
1.2500000000e+02
1.2500000000e+02
1.2500000000e+02
1.2500000000e+02
1.2500000000e+02
1.2500000000e+02
1.2500000000e+02
1.2500000000e+02
9.9999999996e+02
9.9999999996e+02
9.9999999996e+02
9.9999999996e+02
9.9999999996e+02
9.9999999996e+02
9.9999999996e+02
9.9999999996e+02
9.9999999996e+02
9.9999999996e+02
9.9999999996e+02
9.9999999996e+02
9.9999999996e+02
9.9999999996e+02
9.9999999996e+02
9.9999999996e+02
9.9999999996e+02
9.9999999996e+02
9.9999999996e+02
9.9999999996e+02
9.9999999995e+02
9.9999999993e+02
9.9999999981e+02
9.9999999928e+02
9.9999999694e+02
9.9999998715e+02
9.9999994818e+02
9.9999980048e+02
9.9999926891e+02
9.9999745573e+02
9.9999160701e+02
9.9997380978e+02
9.9992286169e+02
9.9978606568e+02
9.9944270615e+02
9.9863988301e+02
9.9689757797e+02
9.9339975246e+02
9.8692151931e+02
9.7587024826e+02
9.5850468690e+02
9.3331821386e+02
8.9946440302e+02
8.5705032596e+02
8.0718240233e+02
7.5178149849e+02
6.9328270847e+02
6.3434988152e+02
5.7765544553e+02
5.2565763707e+02
4.8022236721e+02
4.4196384827e+02
4.0996516081e+02
3.8207122722e+02
3.5655743745e+02
3.3316309488e+02
3.1200890332e+02
2.9139998960e+02
2.6712768779e+02
2.3600283358e+02
2.0038939500e+02
1.6785985715e+02
1.4514132911e+02
1.3298348766e+02
1.2778658399e+02
1.2589251886e+02
1.2526896932e+02
1.2507712790e+02
1.2502113076e+02
1.2500553794e+02
1.2500138887e+02
1.2500033338e+02
1.2500007661e+02
1.2500001687e+02
1.2500000356e+02
1.2500000072e+02
1.2500000014e+02
1.2500000003e+02
1.2500000001e+02
1.2500000001e+02
1.2500000000e+02
1.2500000000e+02
1.2500000000e+02
1.2500000000e+02
1.2500000000e+02
1.2500000000e+02
1.2500000000e+02
1.2500000000e+02
1.2500000000e+02
1.2500000000e+02
1.2500000000e+02
1.2500000000e+02
1.2500000000e+02
1.2500000000e+02
1.2500000000e+02
1.2500000000e+02
1.2500000000e+02
1.2500000000e+02
1.2500000000e+02
1.2500000000e+02
9.9999999996e+02
9.9999999996e+02
9.9999999996e+02
9.9999999996e+02
9.9999999996e+02
9.9999999996e+02
9.9999999996e+02
9.9999999996e+02
9.9999999996e+02
9.9999999996e+02
9.9999999996e+02
9.9999999996e+02
9.9999999996e+02
9.9999999996e+02
9.9999999996e+02
9.9999999996e+02
9.9999999996e+02
9.9999999996e+02
9.9999999996e+02
9.9999999996e+02
9.9999999995e+02
9.9999999993e+02
9.9999999981e+02
9.9999999928e+02
9.9999999694e+02
9.9999998715e+02
9.9999994818e+02
9.9999980048e+02
9.9999926891e+02
9.9999745573e+02
9.9999160701e+02
9.9997380978e+02
9.9992286169e+02
9.9978606568e+02
9.9944270615e+02
9.9863988301e+02
9.9689757797e+02
9.9339975246e+02
9.8692151931e+02
9.7587024826e+02
9.5850468690e+02
9.3331821386e+02
8.9946440302e+02
8.5705032596e+02
8.0718240233e+02
7.5178149849e+02
6.9328270847e+02
6.3434988152e+02
5.7765544553e+02
5.2565763707e+02
4.8022236721e+02
4.4196384827e+02
4.0996516081e+02
3.8207122722e+02
3.5655743745e+02
3.3316309488e+02
3.1200890332e+02
2.9139998960e+02
2.6712768779e+02
2.3600283358e+02
2.0038939500e+02
1.6785985715e+02
1.4514132911e+02
1.3298348766e+02
1.2778658399e+02
1.2589251886e+02
1.2526896932e+02
1.2507712790e+02
1.2502113076e+02
1.2500553794e+02
1.2500138887e+02
1.2500033338e+02
1.2500007661e+02
1.2500001687e+02
1.2500000356e+02
1.2500000072e+02
1.2500000014e+02
1.2500000003e+02
1.2500000001e+02
1.2500000001e+02
1.2500000000e+02
1.2500000000e+02
1.2500000000e+02
1.2500000000e+02
1.2500000000e+02
1.2500000000e+02
1.2500000000e+02
1.2500000000e+02
1.2500000000e+02
1.2500000000e+02
1.2500000000e+02
1.2500000000e+02
1.2500000000e+02
1.2500000000e+02
1.2500000000e+02
1.2500000000e+02
1.2500000000e+02
1.2500000000e+02
1.2500000000e+02
1.2500000000e+02
9.9999999996e+02
9.9999999996e+02
9.9999999996e+02
9.9999999996e+02
9.9999999996e+02
9.9999999996e+02
9.9999999996e+02
9.9999999996e+02
9.9999999996e+02
9.9999999996e+02
9.9999999996e+02
9.9999999996e+02
9.9999999996e+02
9.9999999996e+02
9.9999999996e+02
9.9999999996e+02
9.9999999996e+02
9.9999999996e+02
9.9999999996e+02
9.9999999996e+02
9.9999999995e+02
9.9999999993e+02
9.9999999981e+02
9.9999999928e+02
9.9999999694e+02
9.9999998715e+02
9.9999994818e+02
9.9999980048e+02
9.9999926891e+02
9.9999745573e+02
9.9999160701e+02
9.9997380978e+02
9.9992286169e+02
9.9978606568e+02
9.9944270615e+02
9.9863988301e+02
9.9689757797e+02
9.9339975246e+02
9.8692151931e+02
9.7587024826e+02
9.5850468690e+02
9.3331821386e+02
8.9946440302e+02
8.5705032596e+02
8.0718240233e+02
7.5178149849e+02
6.9328270847e+02
6.3434988152e+02
5.7765544553e+02
5.2565763707e+02
4.8022236721e+02
4.4196384827e+02
4.0996516081e+02
3.8207122722e+02
3.5655743745e+02
3.3316309488e+02
3.1200890332e+02
2.9139998960e+02
2.6712768779e+02
2.3600283358e+02
2.0038939500e+02
1.6785985715e+02
1.4514132911e+02
1.3298348766e+02
1.2778658399e+02
1.2589251886e+02
1.2526896932e+02
1.2507712790e+02
1.2502113076e+02
1.2500553794e+02
1.2500138887e+02
1.2500033338e+02
1.2500007661e+02
1.2500001687e+02
1.2500000356e+02
1.2500000072e+02
1.2500000014e+02
1.2500000003e+02
1.2500000001e+02
1.2500000001e+02
1.2500000000e+02
1.2500000000e+02
1.2500000000e+02
1.2500000000e+02
1.2500000000e+02
1.2500000000e+02
1.2500000000e+02
1.2500000000e+02
1.2500000000e+02
1.2500000000e+02
1.2500000000e+02
1.2500000000e+02
1.2500000000e+02
1.2500000000e+02
1.2500000000e+02
1.2500000000e+02
1.2500000000e+02
1.2500000000e+02
1.2500000000e+02
1.2500000000e+02
9.9999999996e+02
9.9999999996e+02
9.9999999996e+02
9.9999999996e+02
9.9999999996e+02
9.9999999996e+02
9.9999999996e+02
9.9999999996e+02
9.9999999996e+02
9.9999999996e+02
9.9999999996e+02
9.9999999996e+02
9.9999999996e+02
9.9999999996e+02
9.9999999996e+02
9.9999999996e+02
9.9999999996e+02
9.9999999996e+02
9.9999999996e+02
9.9999999996e+02
9.9999999995e+02
9.9999999993e+02
9.9999999981e+02
9.9999999928e+02
9.9999999694e+02
9.9999998715e+02
9.9999994818e+02
9.9999980048e+02
9.9999926891e+02
9.9999745573e+02
9.9999160701e+02
9.9997380978e+02
9.9992286169e+02
9.9978606568e+02
9.9944270615e+02
9.9863988301e+02
9.9689757797e+02
9.9339975246e+02
9.8692151931e+02
9.7587024826e+02
9.5850468690e+02
9.3331821386e+02
8.9946440302e+02
8.5705032596e+02
8.0718240233e+02
7.5178149849e+02
6.9328270847e+02
6.3434988152e+02
5.7765544553e+02
5.2565763707e+02
4.8022236721e+02
4.4196384827e+02
4.0996516081e+02
3.8207122722e+02
3.5655743745e+02
3.3316309488e+02
3.1200890332e+02
2.9139998960e+02
2.6712768779e+02
2.3600283358e+02
2.0038939500e+02
1.6785985715e+02
1.4514132911e+02
1.3298348766e+02
1.2778658399e+02
1.2589251886e+02
1.2526896932e+02
1.2507712790e+02
1.2502113076e+02
1.2500553794e+02
1.2500138887e+02
1.2500033338e+02
1.2500007661e+02
1.2500001687e+02
1.2500000356e+02
1.2500000072e+02
1.2500000014e+02
1.2500000003e+02
1.2500000001e+02
1.2500000001e+02
1.2500000000e+02
1.2500000000e+02
1.2500000000e+02
1.2500000000e+02
1.2500000000e+02
1.2500000000e+02
1.2500000000e+02
1.2500000000e+02
1.2500000000e+02
1.2500000000e+02
1.2500000000e+02
1.2500000000e+02
1.2500000000e+02
1.2500000000e+02
1.2500000000e+02
1.2500000000e+02
1.2500000000e+02
1.2500000000e+02
1.2500000000e+02
1.2500000000e+02

SCALARS molarDensity float
LOOKUP_TABLE default
1.2977624132e+05
1.2977624132e+05
1.2977624132e+05
1.2977624132e+05
1.2977624132e+05
1.2977624132e+05
1.2977624132e+05
1.2977624132e+05
1.2977624132e+05
1.2977624132e+05
1.2977624132e+05
1.2977624132e+05
1.2977624132e+05
1.2977624132e+05
1.2977624132e+05
1.2977624132e+05
1.2977624132e+05
1.2977624132e+05
1.2977624132e+05
1.2977624132e+05
1.2977624132e+05
1.2977624132e+05
1.2977624130e+05
1.2977624123e+05
1.2977624093e+05
1.2977623966e+05
1.2977623460e+05
1.2977621543e+05
1.2977614645e+05
1.2977591114e+05
1.2977515212e+05
1.2977284246e+05
1.2976623061e+05
1.2974847774e+05
1.2970391783e+05
1.2959973046e+05
1.2937362066e+05
1.2891968601e+05
1.2807896526e+05
1.2664477284e+05
1.2439113556e+05
1.2112252976e+05
1.1672910943e+05
1.1122476993e+05
1.0475309824e+05
9.7563377173e+04
8.9971624083e+04
8.2323543309e+04
7.4965952503e+04
6.8217872363e+04
6.2321453818e+04
5.7356407031e+04
5.3203737645e+04
4.9583767787e+04
4.6272684050e+04
4.3236654202e+04
4.0491342734e+04
3.7816795374e+04
3.4666827276e+04
3.0627560685e+04
2.6005782485e+04
2.1784221331e+04
1.8835896153e+04
1.7258097187e+04
1.6583662562e+04
1.6337857909e+04
1.6256935993e+04
1.6232039535e+04
1.6224772437e+04
1.6222748860e+04
1.6222210408e+04
1.6222073431e+04
1.6222040109e+04
1.6222032355e+04
1.6222030628e+04
1.6222030260e+04
1.6222030185e+04
1.6222030170e+04
1.6222030167e+04
1.6222030167e+04
1.6222030167e+04
1.6222030166e+04
1.6222030166e+04
1.6222030166e+04
1.6222030166e+04
1.6222030166e+04
1.6222030166e+04
1.6222030166e+04
1.6222030166e+04
1.6222030166e+04
1.6222030166e+04
1.6222030166e+04
1.6222030166e+04
1.6222030166e+04
1.6222030166e+04
1.6222030166e+04
1.6222030166e+04
1.6222030166e+04
1.6222030166e+04
1.6222030166e+04
1.2977624132e+05
1.2977624132e+05
1.2977624132e+05
1.2977624132e+05
1.2977624132e+05
1.2977624132e+05
1.2977624132e+05
1.2977624132e+05
1.2977624132e+05
1.2977624132e+05
1.2977624132e+05
1.2977624132e+05
1.2977624132e+05
1.2977624132e+05
1.2977624132e+05
1.2977624132e+05
1.2977624132e+05
1.2977624132e+05
1.2977624132e+05
1.2977624132e+05
1.2977624132e+05
1.2977624132e+05
1.2977624130e+05
1.2977624123e+05
1.2977624093e+05
1.2977623966e+05
1.2977623460e+05
1.2977621543e+05
1.2977614645e+05
1.2977591114e+05
1.2977515212e+05
1.2977284246e+05
1.2976623061e+05
1.2974847774e+05
1.2970391783e+05
1.2959973046e+05
1.2937362066e+05
1.2891968601e+05
1.2807896526e+05
1.2664477284e+05
1.2439113556e+05
1.2112252976e+05
1.1672910943e+05
1.1122476993e+05
1.0475309824e+05
9.7563377173e+04
8.9971624083e+04
8.2323543309e+04
7.4965952503e+04
6.8217872363e+04
6.2321453818e+04
5.7356407031e+04
5.3203737645e+04
4.9583767787e+04
4.6272684050e+04
4.3236654202e+04
4.0491342734e+04
3.7816795374e+04
3.4666827276e+04
3.0627560685e+04
2.6005782485e+04
2.1784221331e+04
1.8835896153e+04
1.7258097187e+04
1.6583662562e+04
1.6337857909e+04
1.6256935993e+04
1.6232039535e+04
1.6224772437e+04