# vtk DataFile Version 2.0
Blank
ASCII
DATASET STRUCTURED_GRID
DIMENSIONS 101 11 2
POINTS 2222 float
0.0000000000e+00 0.0000000000e+00 0.0000000000e+00
1.0000000000e-02 0.0000000000e+00 0.0000000000e+00
2.0000000000e-02 0.0000000000e+00 0.0000000000e+00
3.0000000000e-02 0.0000000000e+00 0.0000000000e+00
4.0000000000e-02 0.0000000000e+00 0.0000000000e+00
5.0000000000e-02 0.0000000000e+00 0.0000000000e+00
6.0000000000e-02 0.0000000000e+00 0.0000000000e+00
7.0000000000e-02 0.0000000000e+00 0.0000000000e+00
8.0000000000e-02 0.0000000000e+00 0.0000000000e+00
9.0000000000e-02 0.0000000000e+00 0.0000000000e+00
1.0000000000e-01 0.0000000000e+00 0.0000000000e+00
1.1000000000e-01 0.0000000000e+00 0.0000000000e+00
1.2000000000e-01 0.0000000000e+00 0.0000000000e+00
1.3000000000e-01 0.0000000000e+00 0.0000000000e+00
1.4000000000e-01 0.0000000000e+00 0.0000000000e+00
1.5000000000e-01 0.0000000000e+00 0.0000000000e+00
1.6000000000e-01 0.0000000000e+00 0.0000000000e+00
1.7000000000e-01 0.0000000000e+00 0.0000000000e+00
1.8000000000e-01 0.0000000000e+00 0.0000000000e+00
1.9000000000e-01 0.0000000000e+00 0.0000000000e+00
2.0000000000e-01 0.0000000000e+00 0.0000000000e+00
2.1000000000e-01 0.0000000000e+00 0.0000000000e+00
2.2000000000e-01 0.0000000000e+00 0.0000000000e+00
2.3000000000e-01 0.0000000000e+00 0.0000000000e+00
2.4000000000e-01 0.0000000000e+00 0.0000000000e+00
2.5000000000e-01 0.0000000000e+00 0.0000000000e+00
2.6000000000e-01 0.0000000000e+00 0.0000000000e+00
2.7000000000e-01 0.0000000000e+00 0.0000000000e+00
2.8000000000e-01 0.0000000000e+00 0.0000000000e+00
2.9000000000e-01 0.0000000000e+00 0.0000000000e+00
3.0000000000e-01 0.0000000000e+00 0.0000000000e+00
3.1000000000e-01 0.0000000000e+00 0.0000000000e+00
3.2000000000e-01 0.0000000000e+00 0.0000000000e+00
3.3000000000e-01 0.0000000000e+00 0.0000000000e+00
3.4000000000e-01 0.0000000000e+00 0.0000000000e+00
3.5000000000e-01 0.0000000000e+00 0.0000000000e+00
3.6000000000e-01 0.0000000000e+00 0.0000000000e+00
3.7000000000e-01 0.0000000000e+00 0.0000000000e+00
3.8000000000e-01 0.0000000000e+00 0.0000000000e+00
3.9000000000e-01 0.0000000000e+00 0.0000000000e+00
4.0000000000e-01 0.0000000000e+00 0.0000000000e+00
4.1000000000e-01 0.0000000000e+00 0.0000000000e+00
4.2000000000e-01 0.0000000000e+00 0.0000000000e+00
4.3000000000e-01 0.0000000000e+00 0.0000000000e+00
4.4000000000e-01 0.0000000000e+00 0.0000000000e+00
4.5000000000e-01 0.0000000000e+00 0.0000000000e+00
4.6000000000e-01 0.0000000000e+00 0.0000000000e+00
4.7000000000e-01 0.0000000000e+00 0.0000000000e+00
4.8000000000e-01 0.0000000000e+00 0.0000000000e+00
4.9000000000e-01 0.0000000000e+00 0.0000000000e+00
5.0000000000e-01 0.0000000000e+00 0.0000000000e+00
5.1000000000e-01 0.0000000000e+00 0.0000000000e+00
5.2000000000e-01 0.0000000000e+00 0.0000000000e+00
5.3000000000e-01 0.0000000000e+00 0.0000000000e+00
5.4000000000e-01 0.0000000000e+00 0.0000000000e+00
5.5000000000e-01 0.0000000000e+00 0.0000000000e+00
5.6000000000e-01 0.0000000000e+00 0.0000000000e+00
5.7000000000e-01 0.0000000000e+00 0.0000000000e+00
5.8000000000e-01 0.0000000000e+00 0.0000000000e+00
5.9000000000e-01 0.0000000000e+00 0.0000000000e+00
6.0000000000e-01 0.0000000000e+00 0.0000000000e+00
6.1000000000e-01 0.0000000000e+00 0.0000000000e+00
6.2000000000e-01 0.0000000000e+00 0.0000000000e+00
6.3000000000e-01 0.0000000000e+00 0.0000000000e+00
6.4000000000e-01 0.0000000000e+00 0.0000000000e+00
6.5000000000e-01 0.0000000000e+00 0.0000000000e+00
6.6000000000e-01 0.0000000000e+00 0.0000000000e+00
6.7000000000e-01 0.0000000000e+00 0.0000000000e+00
6.8000000000e-01 0.0000000000e+00 0.0000000000e+00
6.9000000000e-01 0.0000000000e+00 0.0000000000e+00
7.0000000000e-01 0.0000000000e+00 0.0000000000e+00
7.1000000000e-01 0.0000000000e+00 0.0000000000e+00
7.2000000000e-01 0.0000000000e+00 0.0000000000e+00
7.3000000000e-01 0.0000000000e+00 0.0000000000e+00
7.4000000000e-01 0.0000000000e+00 0.0000000000e+00
7.5000000000e-01 0.0000000000e+00 0.0000000000e+00
7.6000000000e-01 0.0000000000e+00 0.0000000000e+00
7.7000000000e-01 0.0000000000e+00 0.0000000000e+00
7.8000000000e-01 0.0000000000e+00 0.0000000000e+00
7.9000000000e-01 0.0000000000e+00 0.0000000000e+00
8.0000000000e-01 0.0000000000e+00 0.0000000000e+00
8.1000000000e-01 0.0000000000e+00 0.0000000000e+00
8.2000000000e-01 0.0000000000e+00 0.0000000000e+00
8.3000000000e-01 0.0000000000e+00 0.0000000000e+00
8.4000000000e-01 0.0000000000e+00 0.0000000000e+00
8.5000000000e-01 0.0000000000e+00 0.0000000000e+00
8.6000000000e-01 0.0000000000e+00 0.0000000000e+00
8.7000000000e-01 0.0000000000e+00 0.0000000000e+00
8.8000000000e-01 0.0000000000e+00 0.0000000000e+00
8.9000000000e-01 0.0000000000e+00 0.0000000000e+00
9.0000000000e-01 0.0000000000e+00 0.0000000000e+00
9.1000000000e-01 0.0000000000e+00 0.0000000000e+00
9.2000000000e-01 0.0000000000e+00 0.0000000000e+00
9.3000000000e-01 0.0000000000e+00 0.0000000000e+00
9.4000000000e-01 0.0000000000e+00 0.0000000000e+00
9.5000000000e-01 0.0000000000e+00 0.0000000000e+00
9.6000000000e-01 0.0000000000e+00 0.0000000000e+00
9.7000000000e-01 0.0000000000e+00 0.0000000000e+00
9.8000000000e-01 0.0000000000e+00 0.0000000000e+00
9.9000000000e-01 0.0000000000e+00 0.0000000000e+00
1.0000000000e+00 0.0000000000e+00 0.0000000000e+00
0.0000000000e+00 1.0000000000e-03 0.0000000000e+00
1.0000000000e-02 1.0000000000e-03 0.0000000000e+00
2.0000000000e-02 1.0000000000e-03 0.0000000000e+00
3.0000000000e-02 1.0000000000e-03 0.0000000000e+00
4.0000000000e-02 1.0000000000e-03 0.0000000000e+00
5.0000000000e-02 1.0000000000e-03 0.0000000000e+00
6.0000000000e-02 1.0000000000e-03 0.0000000000e+00
7.0000000000e-02 1.0000000000e-03 0.0000000000e+00
8.0000000000e-02 1.0000000000e-03 0.0000000000e+00
9.0000000000e-02 1.0000000000e-03 0.0000000000e+00
1.0000000000e-01 1.0000000000e-03 0.0000000000e+00
1.1000000000e-01 1.0000000000e-03 0.0000000000e+00
1.2000000000e-01 1.0000000000e-03 0.0000000000e+00
1.3000000000e-01 1.0000000000e-03 0.0000000000e+00
1.4000000000e-01 1.0000000000e-03 0.0000000000e+00
1.5000000000e-01 1.0000000000e-03 0.0000000000e+00
1.6000000000e-01 1.0000000000e-03 0.0000000000e+00
1.7000000000e-01 1.0000000000e-03 0.0000000000e+00
1.8000000000e-01 1.0000000000e-03 0.0000000000e+00
1.9000000000e-01 1.0000000000e-03 0.0000000000e+00
2.0000000000e-01 1.0000000000e-03 0.0000000000e+00
2.1000000000e-01 1.0000000000e-03 0.0000000000e+00
2.2000000000e-01 1.0000000000e-03 0.0000000000e+00
2.3000000000e-01 1.0000000000e-03 0.0000000000e+00
2.4000000000e-01 1.0000000000e-03 0.0000000000e+00
2.5000000000e-01 1.0000000000e-03 0.0000000000e+00
2.6000000000e-01 1.0000000000e-03 0.0000000000e+00
2.7000000000e-01 1.0000000000e-03 0.0000000000e+00
2.8000000000e-01 1.0000000000e-03 0.0000000000e+00
2.9000000000e-01 1.0000000000e-03 0.0000000000e+00
3.0000000000e-01 1.0000000000e-03 0.0000000000e+00
3.1000000000e-01 1.0000000000e-03 0.0000000000e+00
3.2000000000e-01 1.0000000000e-03 0.0000000000e+00
3.3000000000e-01 1.0000000000e-03 0.0000000000e+00
3.4000000000e-01 1.0000000000e-03 0.0000000000e+00
3.5000000000e-01 1.0000000000e-03 0.0000000000e+00
3.6000000000e-01 1.0000000000e-03 0.0000000000e+00
3.7000000000e-01 1.0000000000e-03 0.0000000000e+00
3.8000000000e-01 1.0000000000e-03 0.0000000000e+00
3.9000000000e-01 1.0000000000e-03 0.0000000000e+00
4.0000000000e-01 1.0000000000e-03 0.0000000000e+00
4.1000000000e-01 1.0000000000e-03 0.0000000000e+00
4.2000000000e-01 1.0000000000e-03 0.0000000000e+00
4.3000000000e-01 1.0000000000e-03 0.0000000000e+00
4.4000000000e-01 1.0000000000e-03 0.0000000000e+00
4.5000000000e-01 1.0000000000e-03 0.0000000000e+00
4.6000000000e-01 1.0000000000e-03 0.0000000000e+00
4.7000000000e-01 1.0000000000e-03 0.0000000000e+00
4.8000000000e-01 1.0000000000e-03 0.0000000000e+00
4.9000000000e-01 1.0000000000e-03 0.0000000000e+00
5.0000000000e-01 1.0000000000e-03 0.0000000000e+00
5.1000000000e-01 1.0000000000e-03 0.0000000000e+00
5.2000000000e-01 1.0000000000e-03 0.0000000000e+00
5.3000000000e-01 1.0000000000e-03 0.0000000000e+00
5.4000000000e-01 1.0000000000e-03 0.0000000000e+00
5.5000000000e-01 1.0000000000e-03 0.0000000000e+00
5.6000000000e-01 1.0000000000e-03 0.0000000000e+00
5.7000000000e-01 1.0000000000e-03 0.0000000000e+00
5.8000000000e-01 1.0000000000e-03 0.0000000000e+00
5.9000000000e-01 1.0000000000e-03 0.0000000000e+00
6.0000000000e-01 1.0000000000e-03 0.0000000000e+00
6.1000000000e-01 1.0000000000e-03 0.0000000000e+00
6.2000000000e-01 1.0000000000e-03 0.0000000000e+00
6.3000000000e-01 1.0000000000e-03 0.0000000000e+00
6.4000000000e-01 1.0000000000e-03 0.0000000000e+00
6.5000000000e-01 1.0000000000e-03 0.0000000000e+00
6.6000000000e-01 1.0000000000e-03 0.0000000000e+00
6.7000000000e-01 1.0000000000e-03 0.0000000000e+00
6.8000000000e-01 1.0000000000e-03 0.0000000000e+00
6.9000000000e-01 1.0000000000e-03 0.0000000000e+00
7.0000000000e-01 1.0000000000e-03 0.0000000000e+00
7.1000000000e-01 1.0000000000e-03 0.0000000000e+00
7.2000000000e-01 1.0000000000e-03 0.0000000000e+00
7.3000000000e-01 1.0000000000e-03 0.0000000000e+00
7.4000000000e-01 1.0000000000e-03 0.0000000000e+00
7.5000000000e-01 1.0000000000e-03 0.0000000000e+00
7.6000000000e-01 1.0000000000e-03 0.0000000000e+00
7.7000000000e-01 1.0000000000e-03 0.0000000000e+00
7.8000000000e-01 1.0000000000e-03 0.0000000000e+00
7.9000000000e-01 1.0000000000e-03 0.0000000000e+00
8.0000000000e-01 1.0000000000e-03 0.0000000000e+00
8.1000000000e-01 1.0000000000e-03 0.0000000000e+00
8.2000000000e-01 1.0000000000e-03 0.0000000000e+00
8.3000000000e-01 1.0000000000e-03 0.0000000000e+00
8.4000000000e-01 1.0000000000e-03 0.0000000000e+00
8.5000000000e-01 1.0000000000e-03 0.0000000000e+00
8.6000000000e-01 1.0000000000e-03 0.0000000000e+00
8.7000000000e-01 1.0000000000e-03 0.0000000000e+00
8.8000000000e-01 1.0000000000e-03 0.0000000000e+00
8.9000000000e-01 1.0000000000e-03 0.0000000000e+00
9.0000000000e-01 1.0000000000e-03 0.0000000000e+00
9.1000000000e-01 1.0000000000e-03 0.0000000000e+00
9.2000000000e-01 1.0000000000e-03 0.0000000000e+00
[...]
CELL_DATA 1000

SCALARS massDensity float
LOOKUP_TABLE default
9.9999999996e+02
9.9999999996e+02
9.9999999996e+02
9.9999999996e+02
9.9999999996e+02
9.9999999996e+02
9.9999999996e+02
9.9999999996e+02
9.9999999996e+02
9.9999999996e+02
9.9999999996e+02
9.9999999996e+02
9.9999999996e+02
9.9999999996e+02
9.9999999996e+02
9.9999999996e+02
9.9999999996e+02
9.9999999996e+02
9.9999999996e+02
9.9999999996e+02
9.9999999996e+02
9.9999999995e+02
9.9999999994e+02
9.9999999986e+02
9.9999999949e+02
9.9999999777e+02
9.9999999017e+02
9.9999995821e+02
9.9999983071e+02
9.9999934895e+02
9.9999762877e+02
9.9999183803e+02
9.9997350925e+02
9.9991912549e+02
9.9976836438e+02
9.9937932085e+02
9.9844844524e+02
9.9639141636e+02
9.9220888593e+02
9.8440661562e+02
9.7107415335e+02
9.5019775281e+02
9.2016689480e+02
8.8029218508e+02
8.3110892593e+02
7.7435286804e+02
7.1266966142e+02
6.4923664088e+02
5.8740889807e+02
5.3034855374e+02
4.8047390338e+02
4.3860249409e+02
4.0383967753e+02
3.7397599875e+02
3.4739948116e+02
3.2341173373e+02
3.0043328528e+02
2.7462447188e+02
2.4245458181e+02
2.0567909711e+02
1.7150371446e+02
1.4709014176e+02
1.3377910110e+02
1.2804225468e+02
1.2595939578e+02
1.2528290762e+02
1.2507899348e+02
1.2502098463e+02
1.2500531217e+02
1.2500128224e+02
1.2500029524e+02
1.2500006488e+02
1.2500001362e+02
1.2500000273e+02
1.2500000053e+02
1.2500000010e+02
1.2500000002e+02
1.2500000001e+02
1.2500000001e+02
1.2500000000e+02
1.2500000000e+02
1.2500000000e+02
1.2500000000e+02
1.2500000000e+02
1.2500000000e+02
1.2500000000e+02
1.2500000000e+02
1.2500000000e+02
1.2500000000e+02
1.2500000000e+02
1.2500000000e+02
1.2500000000e+02
1.2500000000e+02
1.2500000000e+02
1.2500000000e+02
1.2500000000e+02
1.2500000000e+02
1.2500000000e+02
1.2500000000e+02
1.2500000000e+02
9.9999999996e+02
9.9999999996e+02
9.9999999996e+02
9.9999999996e+02
9.9999999996e+02
9.9999999996e+02
9.9999999996e+02
9.9999999996e+02
9.9999999996e+02
9.9999999996e+02
9.9999999996e+02
9.9999999996e+02
9.9999999996e+02
9.9999999996e+02
9.9999999996e+02
9.9999999996e+02
9.9999999996e+02
9.9999999996e+02
9.9999999996e+02
9.9999999996e+02
9.9999999996e+02
9.9999999995e+02
9.9999999994e+02
9.9999999986e+02
9.9999999949e+02
9.9999999777e+02
9.9999999017e+02
9.9999995821e+02
9.9999983071e+02
9.9999934895e+02
9.9999762877e+02
9.9999183803e+02
9.9997350925e+02
9.9991912549e+02
9.9976836438e+02
9.9937932085e+02
9.9844844524e+02
9.9639141636e+02
9.9220888593e+02
9.8440661562e+02
9.7107415335e+02
9.5019775281e+02
9.2016689480e+02
8.8029218508e+02
8.3110892593e+02
7.7435286804e+02
7.1266966142e+02
6.4923664088e+02
5.8740889807e+02
5.3034855374e+02
4.8047390338e+02
4.3860249409e+02
4.0383967753e+02
3.7397599875e+02
3.4739948116e+02
3.2341173373e+02
3.0043328528e+02
2.7462447188e+02
2.4245458181e+02
2.0567909711e+02
1.7150371446e+02
1.4709014176e+02
1.3377910110e+02
1.2804225468e+02
1.2595939578e+02
1.2528290762e+02
1.2507899348e+02
1.2502098463e+02
1.2500531217e+02
1.2500128224e+02
1.2500029524e+02
1.2500006488e+02
1.2500001362e+02
1.2500000273e+02
1.2500000053e+02
1.2500000010e+02
1.2500000002e+02
1.2500000001e+02
1.2500000001e+02
1.2500000000e+02
1.2500000000e+02
1.2500000000e+02
1.2500000000e+02
1.2500000000e+02
1.2500000000e+02
1.2500000000e+02
1.2500000000e+02
1.2500000000e+02
1.2500000000e+02
1.2500000000e+02
1.2500000000e+02
1.2500000000e+02
1.2500000000e+02
1.2500000000e+02
1.2500000000e+02
1.2500000000e+02
1.2500000000e+02
1.2500000000e+02
1.2500000000e+02
1.2500000000e+02
9.9999999996e+02
9.9999999996e+02
9.9999999996e+02
9.9999999996e+02
9.9999999996e+02
9.9999999996e+02
9.9999999996e+02
9.9999999996e+02
9.9999999996e+02
9.9999999996e+02
9.9999999996e+02
9.9999999996e+02
9.9999999996e+02
9.9999999996e+02
9.9999999996e+02
9.9999999996e+02
9.9999999996e+02
9.9999999996e+02
9.9999999996e+02
9.9999999996e+02
9.9999999996e+02
9.9999999995e+02
9.9999999994e+02
9.9999999986e+02
9.9999999949e+02
9.9999999777e+02
9.9999999017e+02
9.9999995821e+02
9.9999983071e+02
9.9999934895e+02
9.9999762877e+02
9.9999183803e+02
9.9997350925e+02
9.9991912549e+02
9.9976836438e+02
9.9937932085e+02
9.9844844524e+02
9.9639141636e+02
9.9220888593e+02
9.8440661562e+02
9.7107415335e+02
9.5019775281e+02
9.2016689480e+02
8.8029218508e+02
8.3110892593e+02
7.7435286804e+02
7.1266966142e+02
6.4923664088e+02
5.8740889807e+02
5.3034855374e+02
4.8047390338e+02
4.3860249409e+02
4.0383967753e+02
3.7397599875e+02
3.4739948116e+02
3.2341173373e+02
3.0043328528e+02
2.7462447188e+02
2.4245458181e+02
2.0567909711e+02
1.7150371446e+02
1.4709014176e+02
1.3377910110e+02
1.2804225468e+02
1.2595939578e+02
1.2528290762e+02
1.2507899348e+02
1.2502098463e+02
1.2500531217e+02
1.2500128224e+02
1.2500029524e+02
1.2500006488e+02
1.2500001362e+02
1.2500000273e+02
1.2500000053e+02
1.2500000010e+02
1.2500000002e+02
1.2500000001e+02
1.2500000001e+02
1.2500000000e+02
1.2500000000e+02
1.2500000000e+02
1.2500000000e+02
1.2500000000e+02
1.2500000000e+02
1.2500000000e+02
1.2500000000e+02
1.2500000000e+02
1.2500000000e+02
1.2500000000e+02
1.2500000000e+02
1.2500000000e+02
1.2500000000e+02
1.2500000000e+02
1.2500000000e+02
1.2500000000e+02
1.2500000000e+02
1.2500000000e+02
1.2500000000e+02
1.2500000000e+02
9.9999999996e+02
9.9999999996e+02
9.9999999996e+02
9.9999999996e+02
9.9999999996e+02
9.9999999996e+02
9.9999999996e+02
9.9999999996e+02
9.9999999996e+02
9.9999999996e+02
9.9999999996e+02
9.9999999996e+02
9.9999999996e+02
9.9999999996e+02
9.9999999996e+02
9.9999999996e+02
9.9999999996e+02
9.9999999996e+02
9.9999999996e+02
9.9999999996e+02
9.9999999996e+02
9.9999999995e+02
9.9999999994e+02
9.9999999986e+02
9.9999999949e+02
9.9999999777e+02
9.9999999017e+02
9.9999995821e+02
9.9999983071e+02
9.9999934895e+02
9.9999762877e+02
9.9999183803e+02
9.9997350925e+02
9.9991912549e+02
9.9976836438e+02
9.9937932085e+02
9.9844844524e+02
9.9639141636e+02
9.9220888593e+02
9.8440661562e+02
9.7107415335e+02
9.5019775281e+02
9.2016689480e+02
8.8029218508e+02
8.3110892593e+02
7.7435286804e+02
7.1266966142e+02
6.4923664088e+02
5.8740889807e+02
5.3034855374e+02
4.8047390338e+02
4.3860249409e+02
4.0383967753e+02
3.7397599875e+02
3.4739948116e+02
3.2341173373e+02
3.0043328528e+02
2.7462447188e+02
2.4245458181e+02
2.0567909711e+02
1.7150371446e+02
1.4709014176e+02
1.3377910110e+02
1.2804225468e+02
1.2595939578e+02
1.2528290762e+02
1.2507899348e+02
1.2502098463e+02
1.2500531217e+02
1.2500128224e+02
1.2500029524e+02
1.2500006488e+02
1.2500001362e+02
1.2500000273e+02
1.2500000053e+02
1.2500000010e+02
1.2500000002e+02
1.2500000001e+02
1.2500000001e+02
1.2500000000e+02
1.2500000000e+02
1.2500000000e+02
1.2500000000e+02
1.2500000000e+02
1.2500000000e+02
1.2500000000e+02
1.2500000000e+02
1.2500000000e+02
1.2500000000e+02
1.2500000000e+02
1.2500000000e+02
1.2500000000e+02
1.2500000000e+02
1.2500000000e+02
1.2500000000e+02
1.2500000000e+02
1.2500000000e+02
1.2500000000e+02
1.2500000000e+02
1.2500000000e+02
9.9999999996e+02
9.9999999996e+02
9.9999999996e+02
9.9999999996e+02
9.9999999996e+02
9.9999999996e+02
9.9999999996e+02
9.9999999996e+02
9.9999999996e+02
9.9999999996e+02
9.9999999996e+02
9.9999999996e+02
9.9999999996e+02
9.9999999996e+02
9.9999999996e+02
9.9999999996e+02
9.9999999996e+02
9.9999999996e+02
9.9999999996e+02
9.9999999996e+02
9.9999999996e+02
9.9999999995e+02
9.9999999994e+02
9.9999999986e+02
9.9999999949e+02
9.9999999777e+02
9.9999999017e+02
9.9999995821e+02
9.9999983071e+02
9.9999934895e+02
9.9999762877e+02
9.9999183803e+02
9.9997350925e+02
9.9991912549e+02
9.9976836438e+02
9.9937932085e+02
9.9844844524e+02
9.9639141636e+02
9.9220888593e+02
9.8440661562e+02
9.7107415335e+02
9.5019775281e+02
9.2016689480e+02
8.8029218508e+02
8.3110892593e+02
7.7435286804e+02
7.1266966142e+02
6.4923664088e+02
5.8740889807e+02
5.3034855374e+02
4.8047390338e+02
4.3860249409e+02
4.0383967753e+02
3.7397599875e+02
3.4739948116e+02
3.2341173373e+02
3.0043328528e+02
2.7462447188e+02
2.4245458181e+02
2.0567909711e+02
1.7150371446e+02
1.4709014176e+02
1.3377910110e+02
1.2804225468e+02
1.2595939578e+02
1.2528290762e+02
1.2507899348e+02
1.2502098463e+02
1.2500531217e+02
1.2500128224e+02
1.2500029524e+02
1.2500006488e+02
1.2500001362e+02
1.2500000273e+02
1.2500000053e+02
1.2500000010e+02
1.2500000002e+02
1.2500000001e+02
1.2500000001e+02
1.2500000000e+02
1.2500000000e+02
1.2500000000e+02
1.2500000000e+02
1.2500000000e+02
1.2500000000e+02
1.2500000000e+02
1.2500000000e+02
1.2500000000e+02
1.2500000000e+02
1.2500000000e+02
1.2500000000e+02
1.2500000000e+02
1.2500000000e+02
1.2500000000e+02
1.2500000000e+02
1.2500000000e+02
1.2500000000e+02
1.2500000000e+02
1.2500000000e+02
1.2500000000e+02
9.9999999996e+02
9.9999999996e+02
9.9999999996e+02
9.9999999996e+02
9.9999999996e+02
9.9999999996e+02
9.9999999996e+02
9.9999999996e+02
9.9999999996e+02
9.9999999996e+02
9.9999999996e+02
9.9999999996e+02
9.9999999996e+02
9.9999999996e+02
9.9999999996e+02
9.9999999996e+02
9.9999999996e+02
9.9999999996e+02
9.9999999996e+02
9.9999999996e+02
9.9999999996e+02
9.9999999995e+02
9.9999999994e+02
9.9999999986e+02
9.9999999949e+02
9.9999999777e+02
9.9999999017e+02
9.9999995821e+02
9.9999983071e+02
9.9999934895e+02
9.9999762877e+02
9.9999183803e+02
9.9997350925e+02
9.9991912549e+02
9.9976836438e+02
9.9937932085e+02
9.9844844524e+02
9.9639141636e+02
9.9220888593e+02
9.8440661562e+02
9.7107415335e+02
9.5019775281e+02
9.2016689480e+02
8.8029218508e+02
8.3110892593e+02
7.7435286804e+02
7.1266966142e+02
6.4923664088e+02
5.8740889807e+02
5.3034855374e+02
4.8047390338e+02
4.3860249409e+02
4.0383967753e+02
3.7397599875e+02
3.4739948116e+02
3.2341173373e+02
3.0043328528e+02
2.7462447188e+02
2.4245458181e+02
2.0567909711e+02
1.7150371446e+02
1.4709014176e+02
1.3377910110e+02
1.2804225468e+02
1.2595939578e+02
1.2528290762e+02
1.2507899348e+02
1.2502098463e+02
1.2500531217e+02
1.2500128224e+02
1.2500029524e+02
1.2500006488e+02
1.2500001362e+02
1.2500000273e+02
1.2500000053e+02
1.2500000010e+02
1.2500000002e+02
1.2500000001e+02
1.2500000001e+02
1.2500000000e+02
1.2500000000e+02
1.2500000000e+02
1.2500000000e+02
1.2500000000e+02
1.2500000000e+02
1.2500000000e+02
1.2500000000e+02
1.2500000000e+02
1.2500000000e+02
1.2500000000e+02
1.2500000000e+02
1.2500000000e+02
1.2500000000e+02
1.2500000000e+02
1.2500000000e+02
1.2500000000e+02
1.2500000000e+02
1.2500000000e+02
1.2500000000e+02
1.2500000000e+02
9.9999999996e+02
9.9999999996e+02
9.9999999996e+02
9.9999999996e+02
9.9999999996e+02
9.9999999996e+02
9.9999999996e+02
9.9999999996e+02
9.9999999996e+02
9.9999999996e+02
9.9999999996e+02
9.9999999996e+02
9.9999999996e+02
9.9999999996e+02
9.9999999996e+02
9.9999999996e+02
9.9999999996e+02
9.9999999996e+02
9.9999999996e+02
9.9999999996e+02
9.9999999996e+02
9.9999999995e+02
9.9999999994e+02
9.9999999986e+02
9.9999999949e+02
9.9999999777e+02
9.9999999017e+02
9.9999995821e+02
9.9999983071e+02
9.9999934895e+02
9.9999762877e+02
9.9999183803e+02
9.9997350925e+02
9.9991912549e+02
9.9976836438e+02
9.9937932085e+02
9.9844844524e+02
9.9639141636e+02
9.9220888593e+02
9.8440661562e+02
9.7107415335e+02
9.5019775281e+02
9.2016689480e+02
8.8029218508e+02
8.3110892593e+02
7.7435286804e+02
7.1266966142e+02
6.4923664088e+02
5.8740889807e+02
5.3034855374e+02
4.8047390338e+02
4.3860249409e+02
4.0383967753e+02
3.7397599875e+02
3.4739948116e+02
3.2341173373e+02
3.0043328528e+02
2.7462447188e+02
2.4245458181e+02
2.0567909711e+02
1.7150371446e+02
1.4709014176e+02
1.3377910110e+02
1.2804225468e+02
1.2595939578e+02
1.2528290762e+02
1.2507899348e+02
1.2502098463e+02
1.2500531217e+02
1.2500128224e+02
1.2500029524e+02
1.2500006488e+02
1.2500001362e+02
1.2500000273e+02
1.2500000053e+02
1.2500000010e+02
1.2500000002e+02
1.2500000001e+02
1.2500000001e+02
1.2500000000e+02
1.2500000000e+02
1.2500000000e+02
1.2500000000e+02
1.2500000000e+02
1.2500000000e+02
1.2500000000e+02
1.2500000000e+02
1.2500000000e+02
1.2500000000e+02
1.2500000000e+02
1.2500000000e+02
1.2500000000e+02
1.2500000000e+02
1.2500000000e+02
1.2500000000e+02
1.2500000000e+02
1.2500000000e+02
1.2500000000e+02
1.2500000000e+02
1.2500000000e+02
9.9999999996e+02
9.9999999996e+02
9.9999999996e+02
9.9999999996e+02
9.9999999996e+02
9.9999999996e+02
9.9999999996e+02
9.9999999996e+02
9.9999999996e+02
9.9999999996e+02
9.9999999996e+02
9.9999999996e+02
9.9999999996e+02
9.9999999996e+02
9.9999999996e+02
9.9999999996e+02
9.9999999996e+02
9.9999999996e+02
9.9999999996e+02
9.9999999996e+02
9.9999999996e+02
9.9999999995e+02
9.9999999994e+02
9.9999999986e+02
9.9999999949e+02
9.9999999777e+02
9.9999999017e+02
9.9999995821e+02
9.9999983071e+02
9.9999934895e+02
9.9999762877e+02
9.9999183803e+02
9.9997350925e+02
9.9991912549e+02
9.9976836438e+02
9.9937932085e+02
9.9844844524e+02
9.9639141636e+02
9.9220888593e+02
9.8440661562e+02
9.7107415335e+02
9.5019775281e+02
9.2016689480e+02
8.8029218508e+02
8.3110892593e+02
7.7435286804e+02
7.1266966142e+02
6.4923664088e+02
5.8740889807e+02
5.3034855374e+02
4.8047390338e+02
4.3860249409e+02
4.0383967753e+02
3.7397599875e+02
3.4739948116e+02
3.2341173373e+02
3.0043328528e+02
2.7462447188e+02
2.4245458181e+02
2.0567909711e+02
1.7150371446e+02
1.4709014176e+02
1.3377910110e+02
1.2804225468e+02
1.2595939578e+02
1.2528290762e+02
1.2507899348e+02
1.2502098463e+02
1.2500531217e+02
1.2500128224e+02
1.2500029524e+02
1.2500006488e+02
1.2500001362e+02
1.2500000273e+02
1.2500000053e+02
1.2500000010e+02
1.2500000002e+02
1.2500000001e+02
1.2500000001e+02
1.2500000000e+02
1.2500000000e+02
1.2500000000e+02
1.2500000000e+02
1.2500000000e+02
1.2500000000e+02
1.2500000000e+02
1.2500000000e+02
1.2500000000e+02
1.2500000000e+02
1.2500000000e+02
1.2500000000e+02
1.2500000000e+02
1.2500000000e+02
1.2500000000e+02
1.2500000000e+02
1.2500000000e+02
1.2500000000e+02
1.2500000000e+02
1.2500000000e+02
1.2500000000e+02
9.9999999996e+02
9.9999999996e+02
9.9999999996e+02
9.9999999996e+02
9.9999999996e+02
9.9999999996e+02
9.9999999996e+02
9.9999999996e+02
9.9999999996e+02
9.9999999996e+02
9.9999999996e+02
9.9999999996e+02
9.9999999996e+02
9.9999999996e+02
9.9999999996e+02
9.9999999996e+02
9.9999999996e+02
9.9999999996e+02
9.9999999996e+02
9.9999999996e+02
9.9999999996e+02
9.9999999995e+02
9.9999999994e+02
9.9999999986e+02
9.9999999949e+02
9.9999999777e+02
9.9999999017e+02
9.9999995821e+02
9.9999983071e+02
9.9999934895e+02
9.9999762877e+02
9.9999183803e+02
9.9997350925e+02
9.9991912549e+02
9.9976836438e+02
9.9937932085e+02
9.9844844524e+02
9.9639141636e+02
9.9220888593e+02
9.8440661562e+02
9.7107415335e+02
9.5019775281e+02
9.2016689480e+02
8.8029218508e+02
8.3110892593e+02
7.7435286804e+02
7.1266966142e+02
6.4923664088e+02
5.8740889807e+02
5.3034855374e+02
4.8047390338e+02
4.3860249409e+02
4.0383967753e+02
3.7397599875e+02
3.4739948116e+02
3.2341173373e+02
3.0043328528e+02
2.7462447188e+02
2.4245458181e+02
2.0567909711e+02
1.7150371446e+02
1.4709014176e+02
1.3377910110e+02
1.2804225468e+02
1.2595939578e+02
1.2528290762e+02
1.2507899348e+02
1.2502098463e+02
1.2500531217e+02
1.2500128224e+02
1.2500029524e+02
1.2500006488e+02
1.2500001362e+02
1.2500000273e+02
1.2500000053e+02
1.2500000010e+02
1.2500000002e+02
1.2500000001e+02
1.2500000001e+02
1.2500000000e+02
1.2500000000e+02
1.2500000000e+02
1.2500000000e+02
1.2500000000e+02
1.2500000000e+02
1.2500000000e+02
1.2500000000e+02
1.2500000000e+02
1.2500000000e+02
1.2500000000e+02
1.2500000000e+02
1.2500000000e+02
1.2500000000e+02
1.2500000000e+02
1.2500000000e+02
1.2500000000e+02
1.2500000000e+02
1.2500000000e+02
1.2500000000e+02
1.2500000000e+02
9.9999999996e+02
9.9999999996e+02
9.9999999996e+02
9.9999999996e+02
9.9999999996e+02
9.9999999996e+02
9.9999999996e+02
9.9999999996e+02
9.9999999996e+02
9.9999999996e+02
9.9999999996e+02
9.9999999996e+02
9.9999999996e+02
9.9999999996e+02
9.9999999996e+02
9.9999999996e+02
9.9999999996e+02
9.9999999996e+02
9.9999999996e+02
9.9999999996e+02
9.9999999996e+02
9.9999999995e+02
9.9999999994e+02
9.9999999986e+02
9.9999999949e+02
9.9999999777e+02
9.9999999017e+02
9.9999995821e+02
9.9999983071e+02
9.9999934895e+02
9.9999762877e+02
9.9999183803e+02
9.9997350925e+02
9.9991912549e+02
9.9976836438e+02
9.9937932085e+02
9.9844844524e+02
9.9639141636e+02
9.9220888593e+02
9.8440661562e+02
9.7107415335e+02
9.5019775281e+02
9.2016689480e+02
8.8029218508e+02
8.3110892593e+02
7.7435286804e+02
7.1266966142e+02
6.4923664088e+02
5.8740889807e+02
5.3034855374e+02
4.8047390338e+02
4.3860249409e+02
4.0383967753e+02
3.7397599875e+02
3.4739948116e+02
3.2341173373e+02
3.0043328528e+02
2.7462447188e+02
2.4245458181e+02
2.0567909711e+02
1.7150371446e+02
1.4709014176e+02
1.3377910110e+02
1.2804225468e+02
1.2595939578e+02
1.2528290762e+02
1.2507899348e+02
1.2502098463e+02
1.2500531217e+02
1.2500128224e+02
1.2500029524e+02
1.2500006488e+02
1.2500001362e+02
1.2500000273e+02
1.2500000053e+02
1.2500000010e+02
1.2500000002e+02
1.2500000001e+02
1.2500000001e+02
1.2500000000e+02
1.2500000000e+02
1.2500000000e+02
1.2500000000e+02
1.2500000000e+02
1.2500000000e+02
1.2500000000e+02
1.2500000000e+02
1.2500000000e+02
1.2500000000e+02
1.2500000000e+02
1.2500000000e+02
1.2500000000e+02
1.2500000000e+02
1.2500000000e+02
1.2500000000e+02
1.2500000000e+02
1.2500000000e+02
1.2500000000e+02
1.2500000000e+02
1.2500000000e+02

SCALARS molarDensity float
LOOKUP_TABLE default
1.2977624132e+05
1.2977624132e+05
1.2977624132e+05
1.2977624132e+05
1.2977624132e+05
1.2977624132e+05
1.2977624132e+05
1.2977624132e+05
1.2977624132e+05
1.2977624132e+05
1.2977624132e+05
1.2977624132e+05
1.2977624132e+05
1.2977624132e+05
1.2977624132e+05
1.2977624132e+05
1.2977624132e+05
1.2977624132e+05
1.2977624132e+05
1.2977624132e+05
1.2977624132e+05
1.2977624132e+05
1.2977624132e+05
1.2977624131e+05
1.2977624126e+05
1.2977624104e+05
1.2977624005e+05
1.2977623590e+05
1.2977621936e+05
1.2977615684e+05
1.2977593360e+05
1.2977518210e+05
1.2977280346e+05
1.2976574574e+05
1.2974618053e+05
1.2969569192e+05
1.2957488638e+05
1.2930793291e+05
1.2876513983e+05
1.2775259051e+05
1.2602235367e+05
1.2331309288e+05
1.1941580100e+05
1.1424101105e+05
1.0785819254e+05
1.0049260468e+05
9.2487589967e+04
8.4255490986e+04
7.6231718914e+04
6.8826641897e+04
6.2354097237e+04
5.6920183120e+04
5.2408795449e+04
4.8533199464e+04
4.5084198904e+04
4.1971159204e+04
3.8989102533e+04
3.5639731737e+04
3.1464844319e+04
2.6692260143e+04
2.2257107436e+04
1.9088805734e+04
1.7361348909e+04
1.6616842544e+04
1.6346536944e+04
1.6258744854e+04
1.6232281643e+04
1.6224753472e+04
1.6222719560e+04
1.6222196570e+04
1.6222068480e+04
1.6222038585e+04
1.6222031933e+04
1.6222030521e+04
1.6222030234e+04
1.6222030179e+04
1.6222030169e+04
1.6222030167e+04
1.6222030167e+04
1.6222030166e+04
1.6222030166e+04
1.6222030166e+04
1.6222030166e+04
1.6222030166e+04
1.6222030166e+04
1.6222030166e+04
1.6222030166e+04
1.6222030166e+04
1.6222030166e+04
1.6222030166e+04
1.6222030166e+04
1.6222030166e+04
1.6222030166e+04
1.6222030166e+04
1.6222030166e+04
1.6222030166e+04
1.6222030166e+04
1.6222030166e+04
1.6222030166e+04
1.6222030166e+04
1.2977624132e+05
1.2977624132e+05
1.2977624132e+05
1.2977624132e+05
1.2977624132e+05
1.2977624132e+05
1.2977624132e+05
1.2977624132e+05
1.2977624132e+05
1.2977624132e+05
1.2977624132e+05
1.2977624132e+05
1.2977624132e+05
1.2977624132e+05
1.2977624132e+05
1.2977624132e+05
1.2977624132e+05
1.2977624132e+05
1.2977624132e+05
1.2977624132e+05
1.2977624132e+05
1.2977624132e+05
1.2977624132e+05
1.2977624131e+05
1.2977624126e+05
1.2977624104e+05
1.2977624005e+05
1.2977623590e+05
1.2977621936e+05
1.2977615684e+05
1.2977593360e+05
1.2977518210e+05
1.2977280346e+05
1.2976574574e+05
1.2974618053e+05
1.2969569192e+05
1.2957488638e+05
1.2930793291e+05
1.2876513983e+05
1.2775259051e+05
1.2602235367e+05
1.2331309288e+05
1.1941580100e+05
1.1424101105e+05
1.0785819254e+05
1.0049260468e+05
9.2487589967e+04
8.4255490986e+04
7.6231718914e+04
6.8826641897e+04
6.2354097237e+04
5.6920183120e+04
5.2408795449e+04
4.8533199464e+04
4.5084198904e+04
4.1971159204e+04
3.8989102533e+04
3.5639731737e+04
3.1464844319e+04
2.6692260143e+04
2.2257107436e+04
1.9088805734e+04
1.7361348909e+04
1.6616842544e+04
1.6346536944e+04
1.6258744854e+04
1.6232281643e+04
1.6224753472e+04
1.6222719560e+04