# vtk DataFile Version 2.0
Blank
ASCII
DATASET STRUCTURED_GRID
DIMENSIONS 101 11 2
POINTS 2222 float
0.0000000000e+00 0.0000000000e+00 0.0000000000e+00
1.0000000000e-02 0.0000000000e+00 0.0000000000e+00
2.0000000000e-02 0.0000000000e+00 0.0000000000e+00
3.0000000000e-02 0.0000000000e+00 0.0000000000e+00
4.0000000000e-02 0.0000000000e+00 0.0000000000e+00
5.0000000000e-02 0.0000000000e+00 0.0000000000e+00
6.0000000000e-02 0.0000000000e+00 0.0000000000e+00
7.0000000000e-02 0.0000000000e+00 0.0000000000e+00
8.0000000000e-02 0.0000000000e+00 0.0000000000e+00
9.0000000000e-02 0.0000000000e+00 0.0000000000e+00
1.0000000000e-01 0.0000000000e+00 0.0000000000e+00
1.1000000000e-01 0.0000000000e+00 0.0000000000e+00
1.2000000000e-01 0.0000000000e+00 0.0000000000e+00
1.3000000000e-01 0.0000000000e+00 0.0000000000e+00
1.4000000000e-01 0.0000000000e+00 0.0000000000e+00
1.5000000000e-01 0.0000000000e+00 0.0000000000e+00
1.6000000000e-01 0.0000000000e+00 0.0000000000e+00
1.7000000000e-01 0.0000000000e+00 0.0000000000e+00
1.8000000000e-01 0.0000000000e+00 0.0000000000e+00
1.9000000000e-01 0.0000000000e+00 0.0000000000e+00
2.0000000000e-01 0.0000000000e+00 0.0000000000e+00
2.1000000000e-01 0.0000000000e+00 0.0000000000e+00
2.2000000000e-01 0.0000000000e+00 0.0000000000e+00
2.3000000000e-01 0.0000000000e+00 0.0000000000e+00
2.4000000000e-01 0.0000000000e+00 0.0000000000e+00
2.5000000000e-01 0.0000000000e+00 0.0000000000e+00
2.6000000000e-01 0.0000000000e+00 0.0000000000e+00
2.7000000000e-01 0.0000000000e+00 0.0000000000e+00
2.8000000000e-01 0.0000000000e+00 0.0000000000e+00
2.9000000000e-01 0.0000000000e+00 0.0000000000e+00
3.0000000000e-01 0.0000000000e+00 0.0000000000e+00
3.1000000000e-01 0.0000000000e+00 0.0000000000e+00
3.2000000000e-01 0.0000000000e+00 0.0000000000e+00
3.3000000000e-01 0.0000000000e+00 0.0000000000e+00
3.4000000000e-01 0.0000000000e+00 0.0000000000e+00
3.5000000000e-01 0.0000000000e+00 0.0000000000e+00
3.6000000000e-01 0.0000000000e+00 0.0000000000e+00
3.7000000000e-01 0.0000000000e+00 0.0000000000e+00
3.8000000000e-01 0.0000000000e+00 0.0000000000e+00
3.9000000000e-01 0.0000000000e+00 0.0000000000e+00
4.0000000000e-01 0.0000000000e+00 0.0000000000e+00
4.1000000000e-01 0.0000000000e+00 0.0000000000e+00
4.2000000000e-01 0.0000000000e+00 0.0000000000e+00
4.3000000000e-01 0.0000000000e+00 0.0000000000e+00
4.4000000000e-01 0.0000000000e+00 0.0000000000e+00
4.5000000000e-01 0.0000000000e+00 0.0000000000e+00
4.6000000000e-01 0.0000000000e+00 0.0000000000e+00
4.7000000000e-01 0.0000000000e+00 0.0000000000e+00
4.8000000000e-01 0.0000000000e+00 0.0000000000e+00
4.9000000000e-01 0.0000000000e+00 0.0000000000e+00
5.0000000000e-01 0.0000000000e+00 0.0000000000e+00
5.1000000000e-01 0.0000000000e+00 0.0000000000e+00
5.2000000000e-01 0.0000000000e+00 0.0000000000e+00
5.3000000000e-01 0.0000000000e+00 0.0000000000e+00
5.4000000000e-01 0.0000000000e+00 0.0000000000e+00
5.5000000000e-01 0.0000000000e+00 0.0000000000e+00
5.6000000000e-01 0.0000000000e+00 0.0000000000e+00
5.7000000000e-01 0.0000000000e+00 0.0000000000e+00
5.8000000000e-01 0.0000000000e+00 0.0000000000e+00
5.9000000000e-01 0.0000000000e+00 0.0000000000e+00
6.0000000000e-01 0.0000000000e+00 0.0000000000e+00
6.1000000000e-01 0.0000000000e+00 0.0000000000e+00
6.2000000000e-01 0.0000000000e+00 0.0000000000e+00
6.3000000000e-01 0.0000000000e+00 0.0000000000e+00
6.4000000000e-01 0.0000000000e+00 0.0000000000e+00
6.5000000000e-01 0.0000000000e+00 0.0000000000e+00
6.6000000000e-01 0.0000000000e+00 0.0000000000e+00
6.7000000000e-01 0.0000000000e+00 0.0000000000e+00
6.8000000000e-01 0.0000000000e+00 0.0000000000e+00
6.9000000000e-01 0.0000000000e+00 0.0000000000e+00
7.0000000000e-01 0.0000000000e+00 0.0000000000e+00
7.1000000000e-01 0.0000000000e+00 0.0000000000e+00
7.2000000000e-01 0.0000000000e+00 0.0000000000e+00
7.3000000000e-01 0.0000000000e+00 0.0000000000e+00
7.4000000000e-01 0.0000000000e+00 0.0000000000e+00
7.5000000000e-01 0.0000000000e+00 0.0000000000e+00
7.6000000000e-01 0.0000000000e+00 0.0000000000e+00
7.7000000000e-01 0.0000000000e+00 0.0000000000e+00
7.8000000000e-01 0.0000000000e+00 0.0000000000e+00
7.9000000000e-01 0.0000000000e+00 0.0000000000e+00
8.0000000000e-01 0.0000000000e+00 0.0000000000e+00
8.1000000000e-01 0.0000000000e+00 0.0000000000e+00
8.2000000000e-01 0.0000000000e+00 0.0000000000e+00
8.3000000000e-01 0.0000000000e+00 0.0000000000e+00
8.4000000000e-01 0.0000000000e+00 0.0000000000e+00
8.5000000000e-01 0.0000000000e+00 0.0000000000e+00
8.6000000000e-01 0.0000000000e+00 0.0000000000e+00
8.7000000000e-01 0.0000000000e+00 0.0000000000e+00
8.8000000000e-01 0.0000000000e+00 0.0000000000e+00
8.9000000000e-01 0.0000000000e+00 0.0000000000e+00
9.0000000000e-01 0.0000000000e+00 0.0000000000e+00
9.1000000000e-01 0.0000000000e+00 0.0000000000e+00
9.2000000000e-01 0.0000000000e+00 0.0000000000e+00
9.3000000000e-01 0.0000000000e+00 0.0000000000e+00
9.4000000000e-01 0.0000000000e+00 0.0000000000e+00
9.5000000000e-01 0.0000000000e+00 0.0000000000e+00
9.6000000000e-01 0.0000000000e+00 0.0000000000e+00
9.7000000000e-01 0.0000000000e+00 0.0000000000e+00
9.8000000000e-01 0.0000000000e+00 0.0000000000e+00
9.9000000000e-01 0.0000000000e+00 0.0000000000e+00
1.0000000000e+00 0.0000000000e+00 0.0000000000e+00
0.0000000000e+00 1.0000000000e-03 0.0000000000e+00
1.0000000000e-02 1.0000000000e-03 0.0000000000e+00
2.0000000000e-02 1.0000000000e-03 0.0000000000e+00
3.0000000000e-02 1.0000000000e-03 0.0000000000e+00
4.0000000000e-02 1.0000000000e-03 0.0000000000e+00
5.0000000000e-02 1.0000000000e-03 0.0000000000e+00
6.0000000000e-02 1.0000000000e-03 0.0000000000e+00
7.0000000000e-02 1.0000000000e-03 0.0000000000e+00
8.0000000000e-02 1.0000000000e-03 0.0000000000e+00
9.0000000000e-02 1.0000000000e-03 0.0000000000e+00
1.0000000000e-01 1.0000000000e-03 0.0000000000e+00
1.1000000000e-01 1.0000000000e-03 0.0000000000e+00
1.2000000000e-01 1.0000000000e-03 0.0000000000e+00
1.3000000000e-01 1.0000000000e-03 0.0000000000e+00
1.4000000000e-01 1.0000000000e-03 0.0000000000e+00
1.5000000000e-01 1.0000000000e-03 0.0000000000e+00
1.6000000000e-01 1.0000000000e-03 0.0000000000e+00
1.7000000000e-01 1.0000000000e-03 0.0000000000e+00
1.8000000000e-01 1.0000000000e-03 0.0000000000e+00
1.9000000000e-01 1.0000000000e-03 0.0000000000e+00
2.0000000000e-01 1.0000000000e-03 0.0000000000e+00
2.1000000000e-01 1.0000000000e-03 0.0000000000e+00
2.2000000000e-01 1.0000000000e-03 0.0000000000e+00
2.3000000000e-01 1.0000000000e-03 0.0000000000e+00
2.4000000000e-01 1.0000000000e-03 0.0000000000e+00
2.5000000000e-01 1.0000000000e-03 0.0000000000e+00
2.6000000000e-01 1.0000000000e-03 0.0000000000e+00
2.7000000000e-01 1.0000000000e-03 0.0000000000e+00
2.8000000000e-01 1.0000000000e-03 0.0000000000e+00
2.9000000000e-01 1.0000000000e-03 0.0000000000e+00
3.0000000000e-01 1.0000000000e-03 0.0000000000e+00
3.1000000000e-01 1.0000000000e-03 0.0000000000e+00
3.2000000000e-01 1.0000000000e-03 0.0000000000e+00
3.3000000000e-01 1.0000000000e-03 0.0000000000e+00
3.4000000000e-01 1.0000000000e-03 0.0000000000e+00
3.5000000000e-01 1.0000000000e-03 0.0000000000e+00
3.6000000000e-01 1.0000000000e-03 0.0000000000e+00
3.7000000000e-01 1.0000000000e-03 0.0000000000e+00
3.8000000000e-01 1.0000000000e-03 0.0000000000e+00
3.9000000000e-01 1.0000000000e-03 0.0000000000e+00
4.0000000000e-01 1.0000000000e-03 0.0000000000e+00
4.1000000000e-01 1.0000000000e-03 0.0000000000e+00
4.2000000000e-01 1.0000000000e-03 0.0000000000e+00
4.3000000000e-01 1.0000000000e-03 0.0000000000e+00
4.4000000000e-01 1.0000000000e-03 0.0000000000e+00
4.5000000000e-01 1.0000000000e-03 0.0000000000e+00
4.6000000000e-01 1.0000000000e-03 0.0000000000e+00
4.7000000000e-01 1.0000000000e-03 0.0000000000e+00
4.8000000000e-01 1.0000000000e-03 0.0000000000e+00
4.9000000000e-01 1.0000000000e-03 0.0000000000e+00
5.0000000000e-01 1.0000000000e-03 0.0000000000e+00
5.1000000000e-01 1.0000000000e-03 0.0000000000e+00
5.2000000000e-01 1.0000000000e-03 0.0000000000e+00
5.3000000000e-01 1.0000000000e-03 0.0000000000e+00
5.4000000000e-01 1.0000000000e-03 0.0000000000e+00
5.5000000000e-01 1.0000000000e-03 0.0000000000e+00
5.6000000000e-01 1.0000000000e-03 0.0000000000e+00
5.7000000000e-01 1.0000000000e-03 0.0000000000e+00
5.8000000000e-01 1.0000000000e-03 0.0000000000e+00
5.9000000000e-01 1.0000000000e-03 0.0000000000e+00
6.0000000000e-01 1.0000000000e-03 0.0000000000e+00
6.1000000000e-01 1.0000000000e-03 0.0000000000e+00
6.2000000000e-01 1.0000000000e-03 0.0000000000e+00
6.3000000000e-01 1.0000000000e-03 0.0000000000e+00
6.4000000000e-01 1.0000000000e-03 0.0000000000e+00
6.5000000000e-01 1.0000000000e-03 0.0000000000e+00
6.6000000000e-01 1.0000000000e-03 0.0000000000e+00
6.7000000000e-01 1.0000000000e-03 0.0000000000e+00
6.8000000000e-01 1.0000000000e-03 0.0000000000e+00
6.9000000000e-01 1.0000000000e-03 0.0000000000e+00
7.0000000000e-01 1.0000000000e-03 0.0000000000e+00
7.1000000000e-01 1.0000000000e-03 0.0000000000e+00
7.2000000000e-01 1.0000000000e-03 0.0000000000e+00
7.3000000000e-01 1.0000000000e-03 0.0000000000e+00
7.4000000000e-01 1.0000000000e-03 0.0000000000e+00
7.5000000000e-01 1.0000000000e-03 0.0000000000e+00
7.6000000000e-01 1.0000000000e-03 0.0000000000e+00
7.7000000000e-01 1.0000000000e-03 0.0000000000e+00
7.8000000000e-01 1.0000000000e-03 0.0000000000e+00
7.9000000000e-01 1.0000000000e-03 0.0000000000e+00
8.0000000000e-01 1.0000000000e-03 0.0000000000e+00
8.1000000000e-01 1.0000000000e-03 0.0000000000e+00
8.2000000000e-01 1.0000000000e-03 0.0000000000e+00
8.3000000000e-01 1.0000000000e-03 0.0000000000e+00
8.4000000000e-01 1.0000000000e-03 0.0000000000e+00
8.5000000000e-01 1.0000000000e-03 0.0000000000e+00
8.6000000000e-01 1.0000000000e-03 0.0000000000e+00
8.7000000000e-01 1.0000000000e-03 0.0000000000e+00
8.8000000000e-01 1.0000000000e-03 0.0000000000e+00
8.9000000000e-01 1.0000000000e-03 0.0000000000e+00
9.0000000000e-01 1.0000000000e-03 0.0000000000e+00
9.1000000000e-01 1.0000000000e-03 0.0000000000e+00
9.2000000000e-01 1.0000000000e-03 0.0000000000e+00
[...]
CELL_DATA 1000

SCALARS massDensity float
LOOKUP_TABLE default
9.9999993367e+02
9.9999988849e+02
9.9999975134e+02
9.9999943905e+02
9.9999875600e+02
9.9999730250e+02
9.9999428797e+02
9.9998819554e+02
9.9997620353e+02
9.9995322904e+02
9.9991041817e+02
9.9983288213e+02
9.9969649593e+02
9.9946367373e+02
9.9907824963e+02
9.9845994384e+02
9.9749934731e+02
9.9605480278e+02
9.9395280135e+02
9.9099332800e+02
9.8696082992e+02
9.8164021391e+02
9.7483583904e+02
9.6639037956e+02
9.5620016459e+02
9.4422432319e+02
9.3048652881e+02
9.1506980493e+02
8.9810616360e+02
8.7976347090e+02
8.6023185710e+02
8.3971143598e+02
8.1840236655e+02
7.9649762079e+02
7.7417833890e+02
7.5161138438e+02
7.2894861416e+02
7.0632739650e+02
6.8387198518e+02
6.6169545295e+02
6.3990197646e+02
6.1858933489e+02
5.9785152896e+02
5.7778143978e+02
5.5847342061e+02
5.4002563728e+02
5.2254183046e+02
5.0613195439e+02
4.9091086395e+02
4.7699394278e+02
4.6448845637e+02
4.5347976357e+02
4.4401263563e+02
4.3606985500e+02
4.2955234528e+02
4.2426586023e+02
4.1991926672e+02
4.1613479349e+02
4.1246503143e+02
4.0842705528e+02
4.0354484887e+02
3.9740664940e+02
3.8973168843e+02
3.8043015647e+02
3.6963497895e+02
3.5769011006e+02
3.4509532712e+02
3.3242313306e+02
3.2023098003e+02
3.0898934076e+02
2.9903694647e+02
2.9056460907e+02
2.8362272191e+02
2.7814645927e+02
2.7399602861e+02
2.7101151126e+02
2.6906655868e+02
2.6804505568e+02
2.6756225391e+02
2.6627394044e+02
2.6116441352e+02
2.4817971421e+02
2.2527723898e+02
1.9574981203e+02
1.6727537965e+02
1.4639192361e+02
1.3441634353e+02
1.2876821622e+02
1.2642850254e+02
1.2552672485e+02
1.2519139271e+02
1.2506890062e+02
1.2502461521e+02
1.2500872802e+02
1.2500307002e+02
1.2500107046e+02
1.2500036978e+02
1.2500012670e+02
1.2500004377e+02
1.2500001970e+02
9.9999993367e+02
9.9999988849e+02
9.9999975134e+02
9.9999943905e+02
9.9999875600e+02
9.9999730250e+02
9.9999428797e+02
9.9998819554e+02
9.9997620353e+02
9.9995322904e+02
9.9991041817e+02
9.9983288213e+02
9.9969649593e+02
9.9946367373e+02
9.9907824963e+02
9.9845994384e+02
9.9749934731e+02
9.9605480278e+02
9.9395280135e+02
9.9099332800e+02
9.8696082992e+02
9.8164021391e+02
9.7483583904e+02
9.6639037956e+02
9.5620016459e+02
9.4422432319e+02
9.3048652881e+02
9.1506980493e+02
8.9810616360e+02
8.7976347090e+02
8.6023185710e+02
8.3971143598e+02
8.1840236655e+02
7.9649762079e+02
7.7417833890e+02
7.5161138438e+02
7.2894861416e+02
7.0632739650e+02
6.8387198518e+02
6.6169545295e+02
6.3990197646e+02
6.1858933489e+02
5.9785152896e+02
5.7778143978e+02
5.5847342061e+02
5.4002563728e+02
5.2254183046e+02
5.0613195439e+02
4.9091086395e+02
4.7699394278e+02
4.6448845637e+02
4.5347976357e+02
4.4401263563e+02
4.3606985500e+02
4.2955234528e+02
4.2426586023e+02
4.1991926672e+02
4.1613479349e+02
4.1246503143e+02
4.0842705528e+02
4.0354484887e+02
3.9740664940e+02
3.8973168843e+02
3.8043015647e+02
3.6963497895e+02
3.5769011006e+02
3.4509532712e+02
3.3242313306e+02
3.2023098003e+02
3.0898934076e+02
2.9903694647e+02
2.9056460907e+02
2.8362272191e+02
2.7814645927e+02
2.7399602861e+02
2.7101151126e+02
2.6906655868e+02
2.6804505568e+02
2.6756225391e+02
2.6627394044e+02
2.6116441352e+02
2.4817971421e+02
2.2527723898e+02
1.9574981203e+02
1.6727537965e+02
1.4639192361e+02
1.3441634353e+02
1.2876821622e+02
1.2642850254e+02
1.2552672485e+02
1.2519139271e+02
1.2506890062e+02
1.2502461521e+02
1.2500872802e+02
1.2500307002e+02
1.2500107046e+02
1.2500036978e+02
1.2500012670e+02
1.2500004377e+02
1.2500001970e+02
9.9999993367e+02
9.9999988849e+02
9.9999975134e+02
9.9999943905e+02
9.9999875600e+02
9.9999730250e+02
9.9999428797e+02
9.9998819554e+02
9.9997620353e+02
9.9995322904e+02
9.9991041817e+02
9.9983288213e+02
9.9969649593e+02
9.9946367373e+02
9.9907824963e+02
9.9845994384e+02
9.9749934731e+02
9.9605480278e+02
9.9395280135e+02
9.9099332800e+02
9.8696082992e+02
9.8164021391e+02
9.7483583904e+02
9.6639037956e+02
9.5620016459e+02
9.4422432319e+02
9.3048652881e+02
9.1506980493e+02
8.9810616360e+02
8.7976347090e+02
8.6023185710e+02
8.3971143598e+02
8.1840236655e+02
7.9649762079e+02
7.7417833890e+02
7.5161138438e+02
7.2894861416e+02
7.0632739650e+02
6.8387198518e+02
6.6169545295e+02
6.3990197646e+02
6.1858933489e+02
5.9785152896e+02
5.7778143978e+02
5.5847342061e+02
5.4002563728e+02
5.2254183046e+02
5.0613195439e+02
4.9091086395e+02
4.7699394278e+02
4.6448845637e+02
4.5347976357e+02
4.4401263563e+02
4.3606985500e+02
4.2955234528e+02
4.2426586023e+02
4.1991926672e+02
4.1613479349e+02
4.1246503143e+02
4.0842705528e+02
4.0354484887e+02
3.9740664940e+02
3.8973168843e+02
3.8043015647e+02
3.6963497895e+02
3.5769011006e+02
3.4509532712e+02
3.3242313306e+02
3.2023098003e+02
3.0898934076e+02
2.9903694647e+02
2.9056460907e+02
2.8362272191e+02
2.7814645927e+02
2.7399602861e+02
2.7101151126e+02
2.6906655868e+02
2.6804505568e+02
2.6756225391e+02
2.6627394044e+02
2.6116441352e+02
2.4817971421e+02
2.2527723898e+02
1.9574981203e+02
1.6727537965e+02
1.4639192361e+02
1.3441634353e+02
1.2876821622e+02
1.2642850254e+02
1.2552672485e+02
1.2519139271e+02
1.2506890062e+02
1.2502461521e+02
1.2500872802e+02
1.2500307002e+02
1.2500107046e+02
1.2500036978e+02
1.2500012670e+02
1.2500004377e+02
1.2500001970e+02
9.9999993367e+02
9.9999988849e+02
9.9999975134e+02
9.9999943905e+02
9.9999875600e+02
9.9999730250e+02
9.9999428797e+02
9.9998819554e+02
9.9997620353e+02
9.9995322904e+02
9.9991041817e+02
9.9983288213e+02
9.9969649593e+02
9.9946367373e+02
9.9907824963e+02
9.9845994384e+02
9.9749934731e+02
9.9605480278e+02
9.9395280135e+02
9.9099332800e+02
9.8696082992e+02
9.8164021391e+02
9.7483583904e+02
9.6639037956e+02
9.5620016459e+02
9.4422432319e+02
9.3048652881e+02
9.1506980493e+02
8.9810616360e+02
8.7976347090e+02
8.6023185710e+02
8.3971143598e+02
8.1840236655e+02
7.9649762079e+02
7.7417833890e+02
7.5161138438e+02
7.2894861416e+02
7.0632739650e+02
6.8387198518e+02
6.6169545295e+02
6.3990197646e+02
6.1858933489e+02
5.9785152896e+02
5.7778143978e+02
5.5847342061e+02
5.4002563728e+02
5.2254183046e+02
5.0613195439e+02
4.9091086395e+02
4.7699394278e+02
4.6448845637e+02
4.5347976357e+02
4.4401263563e+02
4.3606985500e+02
4.2955234528e+02
4.2426586023e+02
4.1991926672e+02
4.1613479349e+02
4.1246503143e+02
4.0842705528e+02
4.0354484887e+02
3.9740664940e+02
3.8973168843e+02
3.8043015647e+02
3.6963497895e+02
3.5769011006e+02
3.4509532712e+02
3.3242313306e+02
3.2023098003e+02
3.0898934076e+02
2.9903694647e+02
2.9056460907e+02
2.8362272191e+02
2.7814645927e+02
2.7399602861e+02
2.7101151126e+02
2.6906655868e+02
2.6804505568e+02
2.6756225391e+02
2.6627394044e+02
2.6116441352e+02
2.4817971421e+02
2.2527723898e+02
1.9574981203e+02
1.6727537965e+02
1.4639192361e+02
1.3441634353e+02
1.2876821622e+02
1.2642850254e+02
1.2552672485e+02
1.2519139271e+02
1.2506890062e+02
1.2502461521e+02
1.2500872802e+02
1.2500307002e+02
1.2500107046e+02
1.2500036978e+02
1.2500012670e+02
1.2500004377e+02
1.2500001970e+02
9.9999993367e+02
9.9999988849e+02
9.9999975134e+02
9.9999943905e+02
9.9999875600e+02
9.9999730250e+02
9.9999428797e+02
9.9998819554e+02
9.9997620353e+02
9.9995322904e+02
9.9991041817e+02
9.9983288213e+02
9.9969649593e+02
9.9946367373e+02
9.9907824963e+02
9.9845994384e+02
9.9749934731e+02
9.9605480278e+02
9.9395280135e+02
9.9099332800e+02
9.8696082992e+02
9.8164021391e+02
9.7483583904e+02
9.6639037956e+02
9.5620016459e+02
9.4422432319e+02
9.3048652881e+02
9.1506980493e+02
8.9810616360e+02
8.7976347090e+02
8.6023185710e+02
8.3971143598e+02
8.1840236655e+02
7.9649762079e+02
7.7417833890e+02
7.5161138438e+02
7.2894861416e+02
7.0632739650e+02
6.8387198518e+02
6.6169545295e+02
6.3990197646e+02
6.1858933489e+02
5.9785152896e+02
5.7778143978e+02
5.5847342061e+02
5.4002563728e+02
5.2254183046e+02
5.0613195439e+02
4.9091086395e+02
4.7699394278e+02
4.6448845637e+02
4.5347976357e+02
4.4401263563e+02
4.3606985500e+02
4.2955234528e+02
4.2426586023e+02
4.1991926672e+02
4.1613479349e+02
4.1246503143e+02
4.0842705528e+02
4.0354484887e+02
3.9740664940e+02
3.8973168843e+02
3.8043015647e+02
3.6963497895e+02
3.5769011006e+02
3.4509532712e+02
3.3242313306e+02
3.2023098003e+02
3.0898934076e+02
2.9903694647e+02
2.9056460907e+02
2.8362272191e+02
2.7814645927e+02
2.7399602861e+02
2.7101151126e+02
2.6906655868e+02
2.6804505568e+02
2.6756225391e+02
2.6627394044e+02
2.6116441352e+02
2.4817971421e+02
2.2527723898e+02
1.9574981203e+02
1.6727537965e+02
1.4639192361e+02
1.3441634353e+02
1.2876821622e+02
1.2642850254e+02
1.2552672485e+02
1.2519139271e+02
1.2506890062e+02
1.2502461521e+02
1.2500872802e+02
1.2500307002e+02
1.2500107046e+02
1.2500036978e+02
1.2500012670e+02
1.2500004377e+02
1.2500001970e+02
9.9999993367e+02
9.9999988849e+02
9.9999975134e+02
9.9999943905e+02
9.9999875600e+02
9.9999730250e+02
9.9999428797e+02
9.9998819554e+02
9.9997620353e+02
9.9995322904e+02
9.9991041817e+02
9.9983288213e+02
9.9969649593e+02
9.9946367373e+02
9.9907824963e+02
9.9845994384e+02
9.9749934731e+02
9.9605480278e+02
9.9395280135e+02
9.9099332800e+02
9.8696082992e+02
9.8164021391e+02
9.7483583904e+02
9.6639037956e+02
9.5620016459e+02
9.4422432319e+02
9.3048652881e+02
9.1506980493e+02
8.9810616360e+02
8.7976347090e+02
8.6023185710e+02
8.3971143598e+02
8.1840236655e+02
7.9649762079e+02
7.7417833890e+02
7.5161138438e+02
7.2894861416e+02
7.0632739650e+02
6.8387198518e+02
6.6169545295e+02
6.3990197646e+02
6.1858933489e+02
5.9785152896e+02
5.7778143978e+02
5.5847342061e+02
5.4002563728e+02
5.2254183046e+02
5.0613195439e+02
4.9091086395e+02
4.7699394278e+02
4.6448845637e+02
4.5347976357e+02
4.4401263563e+02
4.3606985500e+02
4.2955234528e+02
4.2426586023e+02
4.1991926672e+02
4.1613479349e+02
4.1246503143e+02
4.0842705528e+02
4.0354484887e+02
3.9740664940e+02
3.8973168843e+02
3.8043015647e+02
3.6963497895e+02
3.5769011006e+02
3.4509532712e+02
3.3242313306e+02
3.2023098003e+02
3.0898934076e+02
2.9903694647e+02
2.9056460907e+02
2.8362272191e+02
2.7814645927e+02
2.7399602861e+02
2.7101151126e+02
2.6906655868e+02
2.6804505568e+02
2.6756225391e+02
2.6627394044e+02
2.6116441352e+02
2.4817971421e+02
2.2527723898e+02
1.9574981203e+02
1.6727537965e+02
1.4639192361e+02
1.3441634353e+02
1.2876821622e+02
1.2642850254e+02
1.2552672485e+02
1.2519139271e+02
1.2506890062e+02
1.2502461521e+02
1.2500872802e+02
1.2500307002e+02
1.2500107046e+02
1.2500036978e+02
1.2500012670e+02
1.2500004377e+02
1.2500001970e+02
9.9999993367e+02
9.9999988849e+02
9.9999975134e+02
9.9999943905e+02
9.9999875600e+02
9.9999730250e+02
9.9999428797e+02
9.9998819554e+02
9.9997620353e+02
9.9995322904e+02
9.9991041817e+02
9.9983288213e+02
9.9969649593e+02
9.9946367373e+02
9.9907824963e+02
9.9845994384e+02
9.9749934731e+02
9.9605480278e+02
9.9395280135e+02
9.9099332800e+02
9.8696082992e+02
9.8164021391e+02
9.7483583904e+02
9.6639037956e+02
9.5620016459e+02
9.4422432319e+02
9.3048652881e+02
9.1506980493e+02
8.9810616360e+02
8.7976347090e+02
8.6023185710e+02
8.3971143598e+02
8.1840236655e+02
7.9649762079e+02
7.7417833890e+02
7.5161138438e+02
7.2894861416e+02
7.0632739650e+02
6.8387198518e+02
6.6169545295e+02
6.3990197646e+02
6.1858933489e+02
5.9785152896e+02
5.7778143978e+02
5.5847342061e+02
5.4002563728e+02
5.2254183046e+02
5.0613195439e+02
4.9091086395e+02
4.7699394278e+02
4.6448845637e+02
4.5347976357e+02
4.4401263563e+02
4.3606985500e+02
4.2955234528e+02
4.2426586023e+02
4.1991926672e+02
4.1613479349e+02
4.1246503143e+02
4.0842705528e+02
4.0354484887e+02
3.9740664940e+02
3.8973168843e+02
3.8043015647e+02
3.6963497895e+02
3.5769011006e+02
3.4509532712e+02
3.3242313306e+02
3.2023098003e+02
3.0898934076e+02
2.9903694647e+02
2.9056460907e+02
2.8362272191e+02
2.7814645927e+02
2.7399602861e+02
2.7101151126e+02
2.6906655868e+02
2.6804505568e+02
2.6756225391e+02
2.6627394044e+02
2.6116441352e+02
2.4817971421e+02
2.2527723898e+02
1.9574981203e+02
1.6727537965e+02
1.4639192361e+02
1.3441634353e+02
1.2876821622e+02
1.2642850254e+02
1.2552672485e+02
1.2519139271e+02
1.2506890062e+02
1.2502461521e+02
1.2500872802e+02
1.2500307002e+02
1.2500107046e+02
1.2500036978e+02
1.2500012670e+02
1.2500004377e+02
1.2500001970e+02
9.9999993367e+02
9.9999988849e+02
9.9999975134e+02
9.9999943905e+02
9.9999875600e+02
9.9999730250e+02
9.9999428797e+02
9.9998819554e+02
9.9997620353e+02
9.9995322904e+02
9.9991041817e+02
9.9983288213e+02
9.9969649593e+02
9.9946367373e+02
9.9907824963e+02
9.9845994384e+02
9.9749934731e+02
9.9605480278e+02
9.9395280135e+02
9.9099332800e+02
9.8696082992e+02
9.8164021391e+02
9.7483583904e+02
9.6639037956e+02
9.5620016459e+02
9.4422432319e+02
9.3048652881e+02
9.1506980493e+02
8.9810616360e+02
8.7976347090e+02
8.6023185710e+02
8.3971143598e+02
8.1840236655e+02
7.9649762079e+02
7.7417833890e+02
7.5161138438e+02
7.2894861416e+02
7.0632739650e+02
6.8387198518e+02
6.6169545295e+02
6.3990197646e+02
6.1858933489e+02
5.9785152896e+02
5.7778143978e+02
5.5847342061e+02
5.4002563728e+02
5.2254183046e+02
5.0613195439e+02
4.9091086395e+02
4.7699394278e+02
4.6448845637e+02
4.5347976357e+02
4.4401263563e+02
4.3606985500e+02
4.2955234528e+02
4.2426586023e+02
4.1991926672e+02
4.1613479349e+02
4.1246503143e+02
4.0842705528e+02
4.0354484887e+02
3.9740664940e+02
3.8973168843e+02
3.8043015647e+02
3.6963497895e+02
3.5769011006e+02
3.4509532712e+02
3.3242313306e+02
3.2023098003e+02
3.0898934076e+02
2.9903694647e+02
2.9056460907e+02
2.8362272191e+02
2.7814645927e+02
2.7399602861e+02
2.7101151126e+02
2.6906655868e+02
2.6804505568e+02
2.6756225391e+02
2.6627394044e+02
2.6116441352e+02
2.4817971421e+02
2.2527723898e+02
1.9574981203e+02
1.6727537965e+02
1.4639192361e+02
1.3441634353e+02
1.2876821622e+02
1.2642850254e+02
1.2552672485e+02
1.2519139271e+02
1.2506890062e+02
1.2502461521e+02
1.2500872802e+02
1.2500307002e+02
1.2500107046e+02
1.2500036978e+02
1.2500012670e+02
1.2500004377e+02
1.2500001970e+02
9.9999993367e+02
9.9999988849e+02
9.9999975134e+02
9.9999943905e+02
9.9999875600e+02
9.9999730250e+02
9.9999428797e+02
9.9998819554e+02
9.9997620353e+02
9.9995322904e+02
9.9991041817e+02
9.9983288213e+02
9.9969649593e+02
9.9946367373e+02
9.9907824963e+02
9.9845994384e+02
9.9749934731e+02
9.9605480278e+02
9.9395280135e+02
9.9099332800e+02
9.8696082992e+02
9.8164021391e+02
9.7483583904e+02
9.6639037956e+02
9.5620016459e+02
9.4422432319e+02
9.3048652881e+02
9.1506980493e+02
8.9810616360e+02
8.7976347090e+02
8.6023185710e+02
8.3971143598e+02
8.1840236655e+02
7.9649762079e+02
7.7417833890e+02
7.5161138438e+02
7.2894861416e+02
7.0632739650e+02
6.8387198518e+02
6.6169545295e+02
6.3990197646e+02
6.1858933489e+02
5.9785152896e+02
5.7778143978e+02
5.5847342061e+02
5.4002563728e+02
5.2254183046e+02
5.0613195439e+02
4.9091086395e+02
4.7699394278e+02
4.6448845637e+02
4.5347976357e+02
4.4401263563e+02
4.3606985500e+02
4.2955234528e+02
4.2426586023e+02
4.1991926672e+02
4.1613479349e+02
4.1246503143e+02
4.0842705528e+02
4.0354484887e+02
3.9740664940e+02
3.8973168843e+02
3.8043015647e+02
3.6963497895e+02
3.5769011006e+02
3.4509532712e+02
3.3242313306e+02
3.2023098003e+02
3.0898934076e+02
2.9903694647e+02
2.9056460907e+02
2.8362272191e+02
2.7814645927e+02
2.7399602861e+02
2.7101151126e+02
2.6906655868e+02
2.6804505568e+02
2.6756225391e+02
2.6627394044e+02
2.6116441352e+02
2.4817971421e+02
2.2527723898e+02
1.9574981203e+02
1.6727537965e+02
1.4639192361e+02
1.3441634353e+02
1.2876821622e+02
1.2642850254e+02
1.2552672485e+02
1.2519139271e+02
1.2506890062e+02
1.2502461521e+02
1.2500872802e+02
1.2500307002e+02
1.2500107046e+02
1.2500036978e+02
1.2500012670e+02
1.2500004377e+02
1.2500001970e+02
9.9999993367e+02
9.9999988849e+02
9.9999975134e+02
9.9999943905e+02
9.9999875600e+02
9.9999730250e+02
9.9999428797e+02
9.9998819554e+02
9.9997620353e+02
9.9995322904e+02
9.9991041817e+02
9.9983288213e+02
9.9969649593e+02
9.9946367373e+02
9.9907824963e+02
9.9845994384e+02
9.9749934731e+02
9.9605480278e+02
9.9395280135e+02
9.9099332800e+02
9.8696082992e+02
9.8164021391e+02
9.7483583904e+02
9.6639037956e+02
9.5620016459e+02
9.4422432319e+02
9.3048652881e+02
9.1506980493e+02
8.9810616360e+02
8.7976347090e+02
8.6023185710e+02
8.3971143598e+02
8.1840236655e+02
7.9649762079e+02
7.7417833890e+02
7.5161138438e+02
7.2894861416e+02
7.0632739650e+02
6.8387198518e+02
6.6169545295e+02
6.3990197646e+02
6.1858933489e+02
5.9785152896e+02
5.7778143978e+02
5.5847342061e+02
5.4002563728e+02
5.2254183046e+02
5.0613195439e+02
4.9091086395e+02
4.7699394278e+02
4.6448845637e+02
4.5347976357e+02
4.4401263563e+02
4.3606985500e+02
4.2955234528e+02
4.2426586023e+02
4.1991926672e+02
4.1613479349e+02
4.1246503143e+02
4.0842705528e+02
4.0354484887e+02
3.9740664940e+02
3.8973168843e+02
3.8043015647e+02
3.6963497895e+02
3.5769011006e+02
3.4509532712e+02
3.3242313306e+02
3.2023098003e+02
3.0898934076e+02
2.9903694647e+02
2.9056460907e+02
2.8362272191e+02
2.7814645927e+02
2.7399602861e+02
2.7101151126e+02
2.6906655868e+02
2.6804505568e+02
2.6756225391e+02
2.6627394044e+02
2.6116441352e+02
2.4817971421e+02
2.2527723898e+02
1.9574981203e+02
1.6727537965e+02
1.4639192361e+02
1.3441634353e+02
1.2876821622e+02
1.2642850254e+02
1.2552672485e+02
1.2519139271e+02
1.2506890062e+02
1.2502461521e+02
1.2500872802e+02
1.2500307002e+02
1.2500107046e+02
1.2500036978e+02
1.2500012670e+02
1.2500004377e+02
1.2500001970e+02

SCALARS molarDensity float
LOOKUP_TABLE default
1.2977623272e+05
1.2977622686e+05
1.2977620906e+05
1.2977616853e+05
1.2977607989e+05
1.2977589126e+05
1.2977550004e+05
1.2977470939e+05
1.2977315311e+05
1.2977017157e+05
1.2976461573e+05
1.2975455340e+05
1.2973685371e+05
1.2970663892e+05
1.2965662003e+05
1.2957637863e+05
1.2945171602e+05
1.2926424846e+05
1.2899145861e+05
1.2860738929e+05
1.2808406684e+05
1.2739357730e+05
1.2651053110e+05
1.2541451111e+05
1.2409206332e+05
1.2253788363e+05
1.2075504431e+05
1.1875431984e+05
1.1655284222e+05
1.1417239651e+05
1.1163765708e+05
1.0897459396e+05
1.0620918302e+05
1.0336646745e+05
1.0046995494e+05
9.7541300404e+04
9.4600211266e+04
9.1664514664e+04
8.8750335786e+04
8.5872348787e+04
8.3044073322e+04
8.0278198807e+04
7.7586924300e+04
7.4982303564e+04
7.2476581407e+04
7.0082497426e+04
6.7813514694e+04
6.5683902657e+04
6.3708566751e+04
6.1902481029e+04
6.0279566008e+04
5.8850899234e+04
5.7622290954e+04
5.6591506738e+04
5.5745688824e+04
5.5059628665e+04
5.4495544095e+04
5.4004409384e+04
5.3528161458e+04
5.3004128090e+04
5.2370533693e+04
5.1573941237e+04
5.0577913651e+04
4.9370795794e+04
4.7969838232e+04
4.6419678043e+04
4.4785174453e+04
4.3140624738e+04
4.1558372945e+04
4.0099475254e+04
3.8807890931e+04
3.7708382827e+04
3.6807490805e+04
3.6096802023e+04
3.5558174732e+04
3.5170855288e+04
3.4918446652e+04
3.4785879832e+04
3.4723223634e+04
3.4556031154e+04
3.3892935954e+04
3.2207830483e+04
2.9235633331e+04
2.5403674846e+04
2.1708370038e+04
1.8998193606e+04
1.7444047836e+04
1.6711055103e+04
1.6407415856e+04
1.6290386537e+04
1.6246868393e+04
1.6230971829e+04
1.6225224636e+04
1.6223162856e+04
1.6222428581e+04
1.6222169086e+04
1.6222078155e+04
1.6222046608e+04
1.6222035846e+04
1.6222032722e+04
1.2977623272e+05
1.2977622686e+05
1.2977620906e+05
1.2977616853e+05
1.2977607989e+05
1.2977589126e+05
1.2977550004e+05
1.2977470939e+05
1.2977315311e+05
1.2977017157e+05
1.2976461573e+05
1.2975455340e+05
1.2973685371e+05
1.2970663892e+05
1.2965662003e+05
1.2957637863e+05
1.2945171602e+05
1.2926424846e+05
1.2899145861e+05
1.2860738929e+05
1.2808406684e+05
1.2739357730e+05
1.2651053110e+05
1.2541451111e+05
1.2409206332e+05
1.2253788363e+05
1.2075504431e+05
1.1875431984e+05
1.1655284222e+05
1.1417239651e+05
1.1163765708e+05
1.0897459396e+05
1.0620918302e+05
1.0336646745e+05
1.0046995494e+05
9.7541300404e+04
9.4600211266e+04
9.1664514664e+04
8.8750335786e+04
8.5872348787e+04
8.3044073322e+04
8.0278198807e+04
7.7586924300e+04
7.4982303564e+04
7.2476581407e+04
7.0082497426e+04
6.7813514694e+04
6.5683902657e+04
6.3708566751e+04
6.1902481029e+04
6.0279566008e+04
5.8850899234e+04
5.7622290954e+04
5.6591506738e+04
5.5745688824e+04
5.5059628665e+04
5.4495544095e+04
5.4004409384e+04
5.3528161458e+04
5.3004128090e+04
5.2370533693e+04
5.1573941237e+04
5.0577913651e+04
4.9370795794e+04
4.7969838232e+04
4.6419678043e+04
4.4785174453e+04
4.3140624738e+04
4.1558372945e+04