# vtk DataFile Version 2.0
Blank
ASCII
DATASET STRUCTURED_GRID
DIMENSIONS 101 11 2
POINTS 2222 float
0.0000000000e+00 0.0000000000e+00 0.0000000000e+00
1.0000000000e-02 0.0000000000e+00 0.0000000000e+00
2.0000000000e-02 0.0000000000e+00 0.0000000000e+00
3.0000000000e-02 0.0000000000e+00 0.0000000000e+00
4.0000000000e-02 0.0000000000e+00 0.0000000000e+00
5.0000000000e-02 0.0000000000e+00 0.0000000000e+00
6.0000000000e-02 0.0000000000e+00 0.0000000000e+00
7.0000000000e-02 0.0000000000e+00 0.0000000000e+00
8.0000000000e-02 0.0000000000e+00 0.0000000000e+00
9.0000000000e-02 0.0000000000e+00 0.0000000000e+00
1.0000000000e-01 0.0000000000e+00 0.0000000000e+00
1.1000000000e-01 0.0000000000e+00 0.0000000000e+00
1.2000000000e-01 0.0000000000e+00 0.0000000000e+00
1.3000000000e-01 0.0000000000e+00 0.0000000000e+00
1.4000000000e-01 0.0000000000e+00 0.0000000000e+00
1.5000000000e-01 0.0000000000e+00 0.0000000000e+00
1.6000000000e-01 0.0000000000e+00 0.0000000000e+00
1.7000000000e-01 0.0000000000e+00 0.0000000000e+00
1.8000000000e-01 0.0000000000e+00 0.0000000000e+00
1.9000000000e-01 0.0000000000e+00 0.0000000000e+00
2.0000000000e-01 0.0000000000e+00 0.0000000000e+00
2.1000000000e-01 0.0000000000e+00 0.0000000000e+00
2.2000000000e-01 0.0000000000e+00 0.0000000000e+00
2.3000000000e-01 0.0000000000e+00 0.0000000000e+00
2.4000000000e-01 0.0000000000e+00 0.0000000000e+00
2.5000000000e-01 0.0000000000e+00 0.0000000000e+00
2.6000000000e-01 0.0000000000e+00 0.0000000000e+00
2.7000000000e-01 0.0000000000e+00 0.0000000000e+00
2.8000000000e-01 0.0000000000e+00 0.0000000000e+00
2.9000000000e-01 0.0000000000e+00 0.0000000000e+00
3.0000000000e-01 0.0000000000e+00 0.0000000000e+00
3.1000000000e-01 0.0000000000e+00 0.0000000000e+00
3.2000000000e-01 0.0000000000e+00 0.0000000000e+00
3.3000000000e-01 0.0000000000e+00 0.0000000000e+00
3.4000000000e-01 0.0000000000e+00 0.0000000000e+00
3.5000000000e-01 0.0000000000e+00 0.0000000000e+00
3.6000000000e-01 0.0000000000e+00 0.0000000000e+00
3.7000000000e-01 0.0000000000e+00 0.0000000000e+00
3.8000000000e-01 0.0000000000e+00 0.0000000000e+00
3.9000000000e-01 0.0000000000e+00 0.0000000000e+00
4.0000000000e-01 0.0000000000e+00 0.0000000000e+00
4.1000000000e-01 0.0000000000e+00 0.0000000000e+00
4.2000000000e-01 0.0000000000e+00 0.0000000000e+00
4.3000000000e-01 0.0000000000e+00 0.0000000000e+00
4.4000000000e-01 0.0000000000e+00 0.0000000000e+00
4.5000000000e-01 0.0000000000e+00 0.0000000000e+00
4.6000000000e-01 0.0000000000e+00 0.0000000000e+00
4.7000000000e-01 0.0000000000e+00 0.0000000000e+00
4.8000000000e-01 0.0000000000e+00 0.0000000000e+00
4.9000000000e-01 0.0000000000e+00 0.0000000000e+00
5.0000000000e-01 0.0000000000e+00 0.0000000000e+00
5.1000000000e-01 0.0000000000e+00 0.0000000000e+00
5.2000000000e-01 0.0000000000e+00 0.0000000000e+00
5.3000000000e-01 0.0000000000e+00 0.0000000000e+00
5.4000000000e-01 0.0000000000e+00 0.0000000000e+00
5.5000000000e-01 0.0000000000e+00 0.0000000000e+00
5.6000000000e-01 0.0000000000e+00 0.0000000000e+00
5.7000000000e-01 0.0000000000e+00 0.0000000000e+00
5.8000000000e-01 0.0000000000e+00 0.0000000000e+00
5.9000000000e-01 0.0000000000e+00 0.0000000000e+00
6.0000000000e-01 0.0000000000e+00 0.0000000000e+00
6.1000000000e-01 0.0000000000e+00 0.0000000000e+00
6.2000000000e-01 0.0000000000e+00 0.0000000000e+00
6.3000000000e-01 0.0000000000e+00 0.0000000000e+00
6.4000000000e-01 0.0000000000e+00 0.0000000000e+00
6.5000000000e-01 0.0000000000e+00 0.0000000000e+00
6.6000000000e-01 0.0000000000e+00 0.0000000000e+00
6.7000000000e-01 0.0000000000e+00 0.0000000000e+00
6.8000000000e-01 0.0000000000e+00 0.0000000000e+00
6.9000000000e-01 0.0000000000e+00 0.0000000000e+00
7.0000000000e-01 0.0000000000e+00 0.0000000000e+00
7.1000000000e-01 0.0000000000e+00 0.0000000000e+00
7.2000000000e-01 0.0000000000e+00 0.0000000000e+00
7.3000000000e-01 0.0000000000e+00 0.0000000000e+00
7.4000000000e-01 0.0000000000e+00 0.0000000000e+00
7.5000000000e-01 0.0000000000e+00 0.0000000000e+00
7.6000000000e-01 0.0000000000e+00 0.0000000000e+00
7.7000000000e-01 0.0000000000e+00 0.0000000000e+00
7.8000000000e-01 0.0000000000e+00 0.0000000000e+00
7.9000000000e-01 0.0000000000e+00 0.0000000000e+00
8.0000000000e-01 0.0000000000e+00 0.0000000000e+00
8.1000000000e-01 0.0000000000e+00 0.0000000000e+00
8.2000000000e-01 0.0000000000e+00 0.0000000000e+00
8.3000000000e-01 0.0000000000e+00 0.0000000000e+00
8.4000000000e-01 0.0000000000e+00 0.0000000000e+00
8.5000000000e-01 0.0000000000e+00 0.0000000000e+00
8.6000000000e-01 0.0000000000e+00 0.0000000000e+00
8.7000000000e-01 0.0000000000e+00 0.0000000000e+00
8.8000000000e-01 0.0000000000e+00 0.0000000000e+00
8.9000000000e-01 0.0000000000e+00 0.0000000000e+00
9.0000000000e-01 0.0000000000e+00 0.0000000000e+00
9.1000000000e-01 0.0000000000e+00 0.0000000000e+00
9.2000000000e-01 0.0000000000e+00 0.0000000000e+00
9.3000000000e-01 0.0000000000e+00 0.0000000000e+00
9.4000000000e-01 0.0000000000e+00 0.0000000000e+00
9.5000000000e-01 0.0000000000e+00 0.0000000000e+00
9.6000000000e-01 0.0000000000e+00 0.0000000000e+00
9.7000000000e-01 0.0000000000e+00 0.0000000000e+00
9.8000000000e-01 0.0000000000e+00 0.0000000000e+00
9.9000000000e-01 0.0000000000e+00 0.0000000000e+00
1.0000000000e+00 0.0000000000e+00 0.0000000000e+00
0.0000000000e+00 1.0000000000e-03 0.0000000000e+00
1.0000000000e-02 1.0000000000e-03 0.0000000000e+00
2.0000000000e-02 1.0000000000e-03 0.0000000000e+00
3.0000000000e-02 1.0000000000e-03 0.0000000000e+00
4.0000000000e-02 1.0000000000e-03 0.0000000000e+00
5.0000000000e-02 1.0000000000e-03 0.0000000000e+00
6.0000000000e-02 1.0000000000e-03 0.0000000000e+00
7.0000000000e-02 1.0000000000e-03 0.0000000000e+00
8.0000000000e-02 1.0000000000e-03 0.0000000000e+00
9.0000000000e-02 1.0000000000e-03 0.0000000000e+00
1.0000000000e-01 1.0000000000e-03 0.0000000000e+00
1.1000000000e-01 1.0000000000e-03 0.0000000000e+00
1.2000000000e-01 1.0000000000e-03 0.0000000000e+00
1.3000000000e-01 1.0000000000e-03 0.0000000000e+00
1.4000000000e-01 1.0000000000e-03 0.0000000000e+00
1.5000000000e-01 1.0000000000e-03 0.0000000000e+00
1.6000000000e-01 1.0000000000e-03 0.0000000000e+00
1.7000000000e-01 1.0000000000e-03 0.0000000000e+00
1.8000000000e-01 1.0000000000e-03 0.0000000000e+00
1.9000000000e-01 1.0000000000e-03 0.0000000000e+00
2.0000000000e-01 1.0000000000e-03 0.0000000000e+00
2.1000000000e-01 1.0000000000e-03 0.0000000000e+00
2.2000000000e-01 1.0000000000e-03 0.0000000000e+00
2.3000000000e-01 1.0000000000e-03 0.0000000000e+00
2.4000000000e-01 1.0000000000e-03 0.0000000000e+00
2.5000000000e-01 1.0000000000e-03 0.0000000000e+00
2.6000000000e-01 1.0000000000e-03 0.0000000000e+00
2.7000000000e-01 1.0000000000e-03 0.0000000000e+00
2.8000000000e-01 1.0000000000e-03 0.0000000000e+00
2.9000000000e-01 1.0000000000e-03 0.0000000000e+00
3.0000000000e-01 1.0000000000e-03 0.0000000000e+00
3.1000000000e-01 1.0000000000e-03 0.0000000000e+00
3.2000000000e-01 1.0000000000e-03 0.0000000000e+00
3.3000000000e-01 1.0000000000e-03 0.0000000000e+00
3.4000000000e-01 1.0000000000e-03 0.0000000000e+00
3.5000000000e-01 1.0000000000e-03 0.0000000000e+00
3.6000000000e-01 1.0000000000e-03 0.0000000000e+00
3.7000000000e-01 1.0000000000e-03 0.0000000000e+00
3.8000000000e-01 1.0000000000e-03 0.0000000000e+00
3.9000000000e-01 1.0000000000e-03 0.0000000000e+00
4.0000000000e-01 1.0000000000e-03 0.0000000000e+00
4.1000000000e-01 1.0000000000e-03 0.0000000000e+00
4.2000000000e-01 1.0000000000e-03 0.0000000000e+00
4.3000000000e-01 1.0000000000e-03 0.0000000000e+00
4.4000000000e-01 1.0000000000e-03 0.0000000000e+00
4.5000000000e-01 1.0000000000e-03 0.0000000000e+00
4.6000000000e-01 1.0000000000e-03 0.0000000000e+00
4.7000000000e-01 1.0000000000e-03 0.0000000000e+00
4.8000000000e-01 1.0000000000e-03 0.0000000000e+00
4.9000000000e-01 1.0000000000e-03 0.0000000000e+00
5.0000000000e-01 1.0000000000e-03 0.0000000000e+00
5.1000000000e-01 1.0000000000e-03 0.0000000000e+00
5.2000000000e-01 1.0000000000e-03 0.0000000000e+00
5.3000000000e-01 1.0000000000e-03 0.0000000000e+00
5.4000000000e-01 1.0000000000e-03 0.0000000000e+00
5.5000000000e-01 1.0000000000e-03 0.0000000000e+00
5.6000000000e-01 1.0000000000e-03 0.0000000000e+00
5.7000000000e-01 1.0000000000e-03 0.0000000000e+00
5.8000000000e-01 1.0000000000e-03 0.0000000000e+00
5.9000000000e-01 1.0000000000e-03 0.0000000000e+00
6.0000000000e-01 1.0000000000e-03 0.0000000000e+00
6.1000000000e-01 1.0000000000e-03 0.0000000000e+00
6.2000000000e-01 1.0000000000e-03 0.0000000000e+00
6.3000000000e-01 1.0000000000e-03 0.0000000000e+00
6.4000000000e-01 1.0000000000e-03 0.0000000000e+00
6.5000000000e-01 1.0000000000e-03 0.0000000000e+00
6.6000000000e-01 1.0000000000e-03 0.0000000000e+00
6.7000000000e-01 1.0000000000e-03 0.0000000000e+00
6.8000000000e-01 1.0000000000e-03 0.0000000000e+00
6.9000000000e-01 1.0000000000e-03 0.0000000000e+00
7.0000000000e-01 1.0000000000e-03 0.0000000000e+00
7.1000000000e-01 1.0000000000e-03 0.0000000000e+00
7.2000000000e-01 1.0000000000e-03 0.0000000000e+00
7.3000000000e-01 1.0000000000e-03 0.0000000000e+00
7.4000000000e-01 1.0000000000e-03 0.0000000000e+00
7.5000000000e-01 1.0000000000e-03 0.0000000000e+00
7.6000000000e-01 1.0000000000e-03 0.0000000000e+00
7.7000000000e-01 1.0000000000e-03 0.0000000000e+00
7.8000000000e-01 1.0000000000e-03 0.0000000000e+00
7.9000000000e-01 1.0000000000e-03 0.0000000000e+00
8.0000000000e-01 1.0000000000e-03 0.0000000000e+00
8.1000000000e-01 1.0000000000e-03 0.0000000000e+00
8.2000000000e-01 1.0000000000e-03 0.0000000000e+00
8.3000000000e-01 1.0000000000e-03 0.0000000000e+00
8.4000000000e-01 1.0000000000e-03 0.0000000000e+00
8.5000000000e-01 1.0000000000e-03 0.0000000000e+00
8.6000000000e-01 1.0000000000e-03 0.0000000000e+00
8.7000000000e-01 1.0000000000e-03 0.0000000000e+00
8.8000000000e-01 1.0000000000e-03 0.0000000000e+00
8.9000000000e-01 1.0000000000e-03 0.0000000000e+00
9.0000000000e-01 1.0000000000e-03 0.0000000000e+00
9.1000000000e-01 1.0000000000e-03 0.0000000000e+00
9.2000000000e-01 1.0000000000e-03 0.0000000000e+00
[...]
CELL_DATA 1000

SCALARS massDensity float
LOOKUP_TABLE default
9.9999998741e+02
9.9999997729e+02
9.9999994595e+02
9.9999987046e+02
9.9999969520e+02
9.9999929904e+02
9.9999842612e+02
9.9999655175e+02
9.9999263190e+02
9.9998465292e+02
9.9996885530e+02
9.9993845397e+02
9.9988163135e+02
9.9977856076e+02
9.9959726829e+02
9.9928831009e+02
9.9877857227e+02
9.9796499471e+02
9.9670959723e+02
9.9483765310e+02
9.9214093155e+02
9.8838735707e+02
9.8333713880e+02
9.7676367443e+02
9.6847591813e+02
9.5833809914e+02
9.4628309800e+02
9.3231732152e+02
9.1651697655e+02
8.9901747067e+02
8.7999871789e+02
8.5966925934e+02
8.3825154186e+02
8.1596981050e+02
7.9304120412e+02
7.6966999413e+02
7.4604452883e+02
7.2233629964e+02
6.9870055437e+02
6.7527797278e+02
6.5219703665e+02
6.2957683461e+02
6.0753012435e+02
5.8616651640e+02
5.6559563629e+02
5.4593004843e+02
5.2728756756e+02
5.0979232496e+02
4.9357360348e+02
4.7876108195e+02
4.6547494000e+02
4.5380963803e+02
4.4381152746e+02
4.3545283803e+02
4.2860719580e+02
4.2303290637e+02
4.1837391152e+02
4.1417027709e+02
4.0989112629e+02
4.0498617305e+02
3.9895245064e+02
3.9141416098e+02
3.8219845233e+02
3.7138198962e+02
3.5928784382e+02
3.4642937840e+02
3.3341757005e+02
3.2085923893e+02
3.0927172984e+02
2.9902878003e+02
2.9034024999e+02
2.8326106356e+02
2.7772410036e+02
2.7359428545e+02
2.7073304594e+02
2.6901671869e+02
2.6815444527e+02
2.6710700490e+02
2.6328520259e+02
2.5266598475e+02
2.3225104520e+02
2.0376951199e+02
1.7418353927e+02
1.5092833626e+02
1.3677358385e+02
1.2979962897e+02
1.2683498755e+02
1.2567828055e+02
1.2524629350e+02
1.2508845021e+02
1.2503148664e+02
1.2501111394e+02
1.2500388794e+02
1.2500134696e+02
1.2500046176e+02
1.2500015652e+02
1.2500005243e+02
1.2500001737e+02
1.2500000578e+02
1.2500000248e+02
9.9999998741e+02
9.9999997729e+02
9.9999994595e+02
9.9999987046e+02
9.9999969520e+02
9.9999929904e+02
9.9999842612e+02
9.9999655175e+02
9.9999263190e+02
9.9998465292e+02
9.9996885530e+02
9.9993845397e+02
9.9988163135e+02
9.9977856076e+02
9.9959726829e+02
9.9928831009e+02
9.9877857227e+02
9.9796499471e+02
9.9670959723e+02
9.9483765310e+02
9.9214093155e+02
9.8838735707e+02
9.8333713880e+02
9.7676367443e+02
9.6847591813e+02
9.5833809914e+02
9.4628309800e+02
9.3231732152e+02
9.1651697655e+02
8.9901747067e+02
8.7999871789e+02
8.5966925934e+02
8.3825154186e+02
8.1596981050e+02
7.9304120412e+02
7.6966999413e+02
7.4604452883e+02
7.2233629964e+02
6.9870055437e+02
6.7527797278e+02
6.5219703665e+02
6.2957683461e+02
6.0753012435e+02
5.8616651640e+02
5.6559563629e+02
5.4593004843e+02
5.2728756756e+02
5.0979232496e+02
4.9357360348e+02
4.7876108195e+02
4.6547494000e+02
4.5380963803e+02
4.4381152746e+02
4.3545283803e+02
4.2860719580e+02
4.2303290637e+02
4.1837391152e+02
4.1417027709e+02
4.0989112629e+02
4.0498617305e+02
3.9895245064e+02
3.9141416098e+02
3.8219845233e+02
3.7138198962e+02
3.5928784382e+02
3.4642937840e+02
3.3341757005e+02
3.2085923893e+02
3.0927172984e+02
2.9902878003e+02
2.9034024999e+02
2.8326106356e+02
2.7772410036e+02
2.7359428545e+02
2.7073304594e+02
2.6901671869e+02
2.6815444527e+02
2.6710700490e+02
2.6328520259e+02
2.5266598475e+02
2.3225104520e+02
2.0376951199e+02
1.7418353927e+02
1.5092833626e+02
1.3677358385e+02
1.2979962897e+02
1.2683498755e+02
1.2567828055e+02
1.2524629350e+02
1.2508845021e+02
1.2503148664e+02
1.2501111394e+02
1.2500388794e+02
1.2500134696e+02
1.2500046176e+02
1.2500015652e+02
1.2500005243e+02
1.2500001737e+02
1.2500000578e+02
1.2500000248e+02
9.9999998741e+02
9.9999997729e+02
9.9999994595e+02
9.9999987046e+02
9.9999969520e+02
9.9999929904e+02
9.9999842612e+02
9.9999655175e+02
9.9999263190e+02
9.9998465292e+02
9.9996885530e+02
9.9993845397e+02
9.9988163135e+02
9.9977856076e+02
9.9959726829e+02
9.9928831009e+02
9.9877857227e+02
9.9796499471e+02
9.9670959723e+02
9.9483765310e+02
9.9214093155e+02
9.8838735707e+02
9.8333713880e+02
9.7676367443e+02
9.6847591813e+02
9.5833809914e+02
9.4628309800e+02
9.3231732152e+02
9.1651697655e+02
8.9901747067e+02
8.7999871789e+02
8.5966925934e+02
8.3825154186e+02
8.1596981050e+02
7.9304120412e+02
7.6966999413e+02
7.4604452883e+02
7.2233629964e+02
6.9870055437e+02
6.7527797278e+02
6.5219703665e+02
6.2957683461e+02
6.0753012435e+02
5.8616651640e+02
5.6559563629e+02
5.4593004843e+02
5.2728756756e+02
5.0979232496e+02
4.9357360348e+02
4.7876108195e+02
4.6547494000e+02
4.5380963803e+02
4.4381152746e+02
4.3545283803e+02
4.2860719580e+02
4.2303290637e+02
4.1837391152e+02
4.1417027709e+02
4.0989112629e+02
4.0498617305e+02
3.9895245064e+02
3.9141416098e+02
3.8219845233e+02
3.7138198962e+02
3.5928784382e+02
3.4642937840e+02
3.3341757005e+02
3.2085923893e+02
3.0927172984e+02
2.9902878003e+02
2.9034024999e+02
2.8326106356e+02
2.7772410036e+02
2.7359428545e+02
2.7073304594e+02
2.6901671869e+02
2.6815444527e+02
2.6710700490e+02
2.6328520259e+02
2.5266598475e+02
2.3225104520e+02
2.0376951199e+02
1.7418353927e+02
1.5092833626e+02
1.3677358385e+02
1.2979962897e+02
1.2683498755e+02
1.2567828055e+02
1.2524629350e+02
1.2508845021e+02
1.2503148664e+02
1.2501111394e+02
1.2500388794e+02
1.2500134696e+02
1.2500046176e+02
1.2500015652e+02
1.2500005243e+02
1.2500001737e+02
1.2500000578e+02
1.2500000248e+02
9.9999998741e+02
9.9999997729e+02
9.9999994595e+02
9.9999987046e+02
9.9999969520e+02
9.9999929904e+02
9.9999842612e+02
9.9999655175e+02
9.9999263190e+02
9.9998465292e+02
9.9996885530e+02
9.9993845397e+02
9.9988163135e+02
9.9977856076e+02
9.9959726829e+02
9.9928831009e+02
9.9877857227e+02
9.9796499471e+02
9.9670959723e+02
9.9483765310e+02
9.9214093155e+02
9.8838735707e+02
9.8333713880e+02
9.7676367443e+02
9.6847591813e+02
9.5833809914e+02
9.4628309800e+02
9.3231732152e+02
9.1651697655e+02
8.9901747067e+02
8.7999871789e+02
8.5966925934e+02
8.3825154186e+02
8.1596981050e+02
7.9304120412e+02
7.6966999413e+02
7.4604452883e+02
7.2233629964e+02
6.9870055437e+02
6.7527797278e+02
6.5219703665e+02
6.2957683461e+02
6.0753012435e+02
5.8616651640e+02
5.6559563629e+02
5.4593004843e+02
5.2728756756e+02
5.0979232496e+02
4.9357360348e+02
4.7876108195e+02
4.6547494000e+02
4.5380963803e+02
4.4381152746e+02
4.3545283803e+02
4.2860719580e+02
4.2303290637e+02
4.1837391152e+02
4.1417027709e+02
4.0989112629e+02
4.0498617305e+02
3.9895245064e+02
3.9141416098e+02
3.8219845233e+02
3.7138198962e+02
3.5928784382e+02
3.4642937840e+02
3.3341757005e+02
3.2085923893e+02
3.0927172984e+02
2.9902878003e+02
2.9034024999e+02
2.8326106356e+02
2.7772410036e+02
2.7359428545e+02
2.7073304594e+02
2.6901671869e+02
2.6815444527e+02
2.6710700490e+02
2.6328520259e+02
2.5266598475e+02
2.3225104520e+02
2.0376951199e+02
1.7418353927e+02
1.5092833626e+02
1.3677358385e+02
1.2979962897e+02
1.2683498755e+02
1.2567828055e+02
1.2524629350e+02
1.2508845021e+02
1.2503148664e+02
1.2501111394e+02
1.2500388794e+02
1.2500134696e+02
1.2500046176e+02
1.2500015652e+02
1.2500005243e+02
1.2500001737e+02
1.2500000578e+02
1.2500000248e+02
9.9999998741e+02
9.9999997729e+02
9.9999994595e+02
9.9999987046e+02
9.9999969520e+02
9.9999929904e+02
9.9999842612e+02
9.9999655175e+02
9.9999263190e+02
9.9998465292e+02
9.9996885530e+02
9.9993845397e+02
9.9988163135e+02
9.9977856076e+02
9.9959726829e+02
9.9928831009e+02
9.9877857227e+02
9.9796499471e+02
9.9670959723e+02
9.9483765310e+02
9.9214093155e+02
9.8838735707e+02
9.8333713880e+02
9.7676367443e+02
9.6847591813e+02
9.5833809914e+02
9.4628309800e+02
9.3231732152e+02
9.1651697655e+02
8.9901747067e+02
8.7999871789e+02
8.5966925934e+02
8.3825154186e+02
8.1596981050e+02
7.9304120412e+02
7.6966999413e+02
7.4604452883e+02
7.2233629964e+02
6.9870055437e+02
6.7527797278e+02
6.5219703665e+02
6.2957683461e+02
6.0753012435e+02
5.8616651640e+02
5.6559563629e+02
5.4593004843e+02
5.2728756756e+02
5.0979232496e+02
4.9357360348e+02
4.7876108195e+02
4.6547494000e+02
4.5380963803e+02
4.4381152746e+02
4.3545283803e+02
4.2860719580e+02
4.2303290637e+02
4.1837391152e+02
4.1417027709e+02
4.0989112629e+02
4.0498617305e+02
3.9895245064e+02
3.9141416098e+02
3.8219845233e+02
3.7138198962e+02
3.5928784382e+02
3.4642937840e+02
3.3341757005e+02
3.2085923893e+02
3.0927172984e+02
2.9902878003e+02
2.9034024999e+02
2.8326106356e+02
2.7772410036e+02
2.7359428545e+02
2.7073304594e+02
2.6901671869e+02
2.6815444527e+02
2.6710700490e+02
2.6328520259e+02
2.5266598475e+02
2.3225104520e+02
2.0376951199e+02
1.7418353927e+02
1.5092833626e+02
1.3677358385e+02
1.2979962897e+02
1.2683498755e+02
1.2567828055e+02
1.2524629350e+02
1.2508845021e+02
1.2503148664e+02
1.2501111394e+02
1.2500388794e+02
1.2500134696e+02
1.2500046176e+02
1.2500015652e+02
1.2500005243e+02
1.2500001737e+02
1.2500000578e+02
1.2500000248e+02
9.9999998741e+02
9.9999997729e+02
9.9999994595e+02
9.9999987046e+02
9.9999969520e+02
9.9999929904e+02
9.9999842612e+02
9.9999655175e+02
9.9999263190e+02
9.9998465292e+02
9.9996885530e+02
9.9993845397e+02
9.9988163135e+02
9.9977856076e+02
9.9959726829e+02
9.9928831009e+02
9.9877857227e+02
9.9796499471e+02
9.9670959723e+02
9.9483765310e+02
9.9214093155e+02
9.8838735707e+02
9.8333713880e+02
9.7676367443e+02
9.6847591813e+02
9.5833809914e+02
9.4628309800e+02
9.3231732152e+02
9.1651697655e+02
8.9901747067e+02
8.7999871789e+02
8.5966925934e+02
8.3825154186e+02
8.1596981050e+02
7.9304120412e+02
7.6966999413e+02
7.4604452883e+02
7.2233629964e+02
6.9870055437e+02
6.7527797278e+02
6.5219703665e+02
6.2957683461e+02
6.0753012435e+02
5.8616651640e+02
5.6559563629e+02
5.4593004843e+02
5.2728756756e+02
5.0979232496e+02
4.9357360348e+02
4.7876108195e+02
4.6547494000e+02
4.5380963803e+02
4.4381152746e+02
4.3545283803e+02
4.2860719580e+02
4.2303290637e+02
4.1837391152e+02
4.1417027709e+02
4.0989112629e+02
4.0498617305e+02
3.9895245064e+02
3.9141416098e+02
3.8219845233e+02
3.7138198962e+02
3.5928784382e+02
3.4642937840e+02
3.3341757005e+02
3.2085923893e+02
3.0927172984e+02
2.9902878003e+02
2.9034024999e+02
2.8326106356e+02
2.7772410036e+02
2.7359428545e+02
2.7073304594e+02
2.6901671869e+02
2.6815444527e+02
2.6710700490e+02
2.6328520259e+02
2.5266598475e+02
2.3225104520e+02
2.0376951199e+02
1.7418353927e+02
1.5092833626e+02
1.3677358385e+02
1.2979962897e+02
1.2683498755e+02
1.2567828055e+02
1.2524629350e+02
1.2508845021e+02
1.2503148664e+02
1.2501111394e+02
1.2500388794e+02
1.2500134696e+02
1.2500046176e+02
1.2500015652e+02
1.2500005243e+02
1.2500001737e+02
1.2500000578e+02
1.2500000248e+02
9.9999998741e+02
9.9999997729e+02
9.9999994595e+02
9.9999987046e+02
9.9999969520e+02
9.9999929904e+02
9.9999842612e+02
9.9999655175e+02
9.9999263190e+02
9.9998465292e+02
9.9996885530e+02
9.9993845397e+02
9.9988163135e+02
9.9977856076e+02
9.9959726829e+02
9.9928831009e+02
9.9877857227e+02
9.9796499471e+02
9.9670959723e+02
9.9483765310e+02
9.9214093155e+02
9.8838735707e+02
9.8333713880e+02
9.7676367443e+02
9.6847591813e+02
9.5833809914e+02
9.4628309800e+02
9.3231732152e+02
9.1651697655e+02
8.9901747067e+02
8.7999871789e+02
8.5966925934e+02
8.3825154186e+02
8.1596981050e+02
7.9304120412e+02
7.6966999413e+02
7.4604452883e+02
7.2233629964e+02
6.9870055437e+02
6.7527797278e+02
6.5219703665e+02
6.2957683461e+02
6.0753012435e+02
5.8616651640e+02
5.6559563629e+02
5.4593004843e+02
5.2728756756e+02
5.0979232496e+02
4.9357360348e+02
4.7876108195e+02
4.6547494000e+02
4.5380963803e+02
4.4381152746e+02
4.3545283803e+02
4.2860719580e+02
4.2303290637e+02
4.1837391152e+02
4.1417027709e+02
4.0989112629e+02
4.0498617305e+02
3.9895245064e+02
3.9141416098e+02
3.8219845233e+02
3.7138198962e+02
3.5928784382e+02
3.4642937840e+02
3.3341757005e+02
3.2085923893e+02
3.0927172984e+02
2.9902878003e+02
2.9034024999e+02
2.8326106356e+02
2.7772410036e+02
2.7359428545e+02
2.7073304594e+02
2.6901671869e+02
2.6815444527e+02
2.6710700490e+02
2.6328520259e+02
2.5266598475e+02
2.3225104520e+02
2.0376951199e+02
1.7418353927e+02
1.5092833626e+02
1.3677358385e+02
1.2979962897e+02
1.2683498755e+02
1.2567828055e+02
1.2524629350e+02
1.2508845021e+02
1.2503148664e+02
1.2501111394e+02
1.2500388794e+02
1.2500134696e+02
1.2500046176e+02
1.2500015652e+02
1.2500005243e+02
1.2500001737e+02
1.2500000578e+02
1.2500000248e+02
9.9999998741e+02
9.9999997729e+02
9.9999994595e+02
9.9999987046e+02
9.9999969520e+02
9.9999929904e+02
9.9999842612e+02
9.9999655175e+02
9.9999263190e+02
9.9998465292e+02
9.9996885530e+02
9.9993845397e+02
9.9988163135e+02
9.9977856076e+02
9.9959726829e+02
9.9928831009e+02
9.9877857227e+02
9.9796499471e+02
9.9670959723e+02
9.9483765310e+02
9.9214093155e+02
9.8838735707e+02
9.8333713880e+02
9.7676367443e+02
9.6847591813e+02
9.5833809914e+02
9.4628309800e+02
9.3231732152e+02
9.1651697655e+02
8.9901747067e+02
8.7999871789e+02
8.5966925934e+02
8.3825154186e+02
8.1596981050e+02
7.9304120412e+02
7.6966999413e+02
7.4604452883e+02
7.2233629964e+02
6.9870055437e+02
6.7527797278e+02
6.5219703665e+02
6.2957683461e+02
6.0753012435e+02
5.8616651640e+02
5.6559563629e+02
5.4593004843e+02
5.2728756756e+02
5.0979232496e+02
4.9357360348e+02
4.7876108195e+02
4.6547494000e+02
4.5380963803e+02
4.4381152746e+02
4.3545283803e+02
4.2860719580e+02
4.2303290637e+02
4.1837391152e+02
4.1417027709e+02
4.0989112629e+02
4.0498617305e+02
3.9895245064e+02
3.9141416098e+02
3.8219845233e+02
3.7138198962e+02
3.5928784382e+02
3.4642937840e+02
3.3341757005e+02
3.2085923893e+02
3.0927172984e+02
2.9902878003e+02
2.9034024999e+02
2.8326106356e+02
2.7772410036e+02
2.7359428545e+02
2.7073304594e+02
2.6901671869e+02
2.6815444527e+02
2.6710700490e+02
2.6328520259e+02
2.5266598475e+02
2.3225104520e+02
2.0376951199e+02
1.7418353927e+02
1.5092833626e+02
1.3677358385e+02
1.2979962897e+02
1.2683498755e+02
1.2567828055e+02
1.2524629350e+02
1.2508845021e+02
1.2503148664e+02
1.2501111394e+02
1.2500388794e+02
1.2500134696e+02
1.2500046176e+02
1.2500015652e+02
1.2500005243e+02
1.2500001737e+02
1.2500000578e+02
1.2500000248e+02
9.9999998741e+02
9.9999997729e+02
9.9999994595e+02
9.9999987046e+02
9.9999969520e+02
9.9999929904e+02
9.9999842612e+02
9.9999655175e+02
9.9999263190e+02
9.9998465292e+02
9.9996885530e+02
9.9993845397e+02
9.9988163135e+02
9.9977856076e+02
9.9959726829e+02
9.9928831009e+02
9.9877857227e+02
9.9796499471e+02
9.9670959723e+02
9.9483765310e+02
9.9214093155e+02
9.8838735707e+02
9.8333713880e+02
9.7676367443e+02
9.6847591813e+02
9.5833809914e+02
9.4628309800e+02
9.3231732152e+02
9.1651697655e+02
8.9901747067e+02
8.7999871789e+02
8.5966925934e+02
8.3825154186e+02
8.1596981050e+02
7.9304120412e+02
7.6966999413e+02
7.4604452883e+02
7.2233629964e+02
6.9870055437e+02
6.7527797278e+02
6.5219703665e+02
6.2957683461e+02
6.0753012435e+02
5.8616651640e+02
5.6559563629e+02
5.4593004843e+02
5.2728756756e+02
5.0979232496e+02
4.9357360348e+02
4.7876108195e+02
4.6547494000e+02
4.5380963803e+02
4.4381152746e+02
4.3545283803e+02
4.2860719580e+02
4.2303290637e+02
4.1837391152e+02
4.1417027709e+02
4.0989112629e+02
4.0498617305e+02
3.9895245064e+02
3.9141416098e+02
3.8219845233e+02
3.7138198962e+02
3.5928784382e+02
3.4642937840e+02
3.3341757005e+02
3.2085923893e+02
3.0927172984e+02
2.9902878003e+02
2.9034024999e+02
2.8326106356e+02
2.7772410036e+02
2.7359428545e+02
2.7073304594e+02
2.6901671869e+02
2.6815444527e+02
2.6710700490e+02
2.6328520259e+02
2.5266598475e+02
2.3225104520e+02
2.0376951199e+02
1.7418353927e+02
1.5092833626e+02
1.3677358385e+02
1.2979962897e+02
1.2683498755e+02
1.2567828055e+02
1.2524629350e+02
1.2508845021e+02
1.2503148664e+02
1.2501111394e+02
1.2500388794e+02
1.2500134696e+02
1.2500046176e+02
1.2500015652e+02
1.2500005243e+02
1.2500001737e+02
1.2500000578e+02
1.2500000248e+02
9.9999998741e+02
9.9999997729e+02
9.9999994595e+02
9.9999987046e+02
9.9999969520e+02
9.9999929904e+02
9.9999842612e+02
9.9999655175e+02
9.9999263190e+02
9.9998465292e+02
9.9996885530e+02
9.9993845397e+02
9.9988163135e+02
9.9977856076e+02
9.9959726829e+02
9.9928831009e+02
9.9877857227e+02
9.9796499471e+02
9.9670959723e+02
9.9483765310e+02
9.9214093155e+02
9.8838735707e+02
9.8333713880e+02
9.7676367443e+02
9.6847591813e+02
9.5833809914e+02
9.4628309800e+02
9.3231732152e+02
9.1651697655e+02
8.9901747067e+02
8.7999871789e+02
8.5966925934e+02
8.3825154186e+02
8.1596981050e+02
7.9304120412e+02
7.6966999413e+02
7.4604452883e+02
7.2233629964e+02
6.9870055437e+02
6.7527797278e+02
6.5219703665e+02
6.2957683461e+02
6.0753012435e+02
5.8616651640e+02
5.6559563629e+02
5.4593004843e+02
5.2728756756e+02
5.0979232496e+02
4.9357360348e+02
4.7876108195e+02
4.6547494000e+02
4.5380963803e+02
4.4381152746e+02
4.3545283803e+02
4.2860719580e+02
4.2303290637e+02
4.1837391152e+02
4.1417027709e+02
4.0989112629e+02
4.0498617305e+02
3.9895245064e+02
3.9141416098e+02
3.8219845233e+02
3.7138198962e+02
3.5928784382e+02
3.4642937840e+02
3.3341757005e+02
3.2085923893e+02
3.0927172984e+02
2.9902878003e+02
2.9034024999e+02
2.8326106356e+02
2.7772410036e+02
2.7359428545e+02
2.7073304594e+02
2.6901671869e+02
2.6815444527e+02
2.6710700490e+02
2.6328520259e+02
2.5266598475e+02
2.3225104520e+02
2.0376951199e+02
1.7418353927e+02
1.5092833626e+02
1.3677358385e+02
1.2979962897e+02
1.2683498755e+02
1.2567828055e+02
1.2524629350e+02
1.2508845021e+02
1.2503148664e+02
1.2501111394e+02
1.2500388794e+02
1.2500134696e+02
1.2500046176e+02
1.2500015652e+02
1.2500005243e+02
1.2500001737e+02
1.2500000578e+02
1.2500000248e+02

SCALARS molarDensity float
LOOKUP_TABLE default
1.2977623969e+05
1.2977623838e+05
1.2977623431e+05
1.2977622452e+05
1.2977620177e+05
1.2977615036e+05
1.2977603707e+05
1.2977579383e+05
1.2977528512e+05
1.2977424964e+05
1.2977219948e+05
1.2976825411e+05
1.2976087989e+05
1.2974750377e+05
1.2972397632e+05
1.2968388089e+05
1.2961772903e+05
1.2951214599e+05
1.2934922522e+05
1.2910629135e+05
1.2875632096e+05
1.2826919618e+05
1.2761379783e+05
1.2676071833e+05
1.2568516447e+05
1.2436951643e+05
1.2280506369e+05
1.2099263771e+05
1.1894212833e+05
1.1667110823e+05
1.1420292598e+05
1.1156464526e+05
1.0878513439e+05
1.0589349504e+05
1.0291790669e+05
9.9884878900e+04
9.6818854813e+04
9.3742089942e+04
9.0674731759e+04
8.7635037159e+04
8.4639680021e+04
8.1704115222e+04
7.8842976031e+04
7.6070487290e+04
7.3400875789e+04
7.0848749713e+04
6.8429398616e+04
6.6158931790e+04
6.4054127078e+04
6.2131813709e+04
6.0407588145e+04
5.8893709102e+04
5.7596191892e+04
5.6511432594e+04
5.5623030877e+04
5.4899620546e+04
5.4294993707e+04
5.3749461830e+04
5.3194129723e+04
5.2557583328e+04
5.1774549513e+04
5.0796258614e+04
4.9600278585e+04
4.8196558710e+04
4.6627025926e+04
4.4958302614e+04
4.3269679034e+04
4.1639906024e+04
4.0136122648e+04
3.8806831121e+04
3.7679266350e+04
3.6760556143e+04
3.6041989871e+04
3.5506038014e+04
3.5134717105e+04
3.4911978606e+04
3.4800076003e+04
3.4664143129e+04
3.4168163989e+04
3.2790041812e+04
3.0140667690e+04
2.6444441363e+04
2.2604885027e+04
1.9586912190e+04
1.7749961625e+04
1.6844907973e+04
1.6460167953e+04
1.6310054867e+04
1.6253993211e+04
1.6233508901e+04
1.6226116383e+04
1.6223472491e+04
1.6222534728e+04
1.6222204969e+04
1.6222090092e+04
1.6222050478e+04
1.6222036970e+04
1.6222032420e+04
1.6222030916e+04
1.6222030488e+04
1.2977623969e+05
1.2977623838e+05
1.2977623431e+05
1.2977622452e+05
1.2977620177e+05
1.2977615036e+05
1.2977603707e+05
1.2977579383e+05
1.2977528512e+05
1.2977424964e+05
1.2977219948e+05
1.2976825411e+05
1.2976087989e+05
1.2974750377e+05
1.2972397632e+05
1.2968388089e+05
1.2961772903e+05
1.2951214599e+05
1.2934922522e+05
1.2910629135e+05
1.2875632096e+05
1.2826919618e+05
1.2761379783e+05
1.2676071833e+05
1.2568516447e+05
1.2436951643e+05
1.2280506369e+05
1.2099263771e+05
1.1894212833e+05
1.1667110823e+05
1.1420292598e+05
1.1156464526e+05
1.0878513439e+05
1.0589349504e+05
1.0291790669e+05
9.9884878900e+04
9.6818854813e+04
9.3742089942e+04
9.0674731759e+04
8.7635037159e+04
8.4639680021e+04
8.1704115222e+04
7.8842976031e+04
7.6070487290e+04
7.3400875789e+04
7.0848749713e+04
6.8429398616e+04
6.6158931790e+04
6.4054127078e+04
6.2131813709e+04
6.0407588145e+04
5.8893709102e+04
5.7596191892e+04
5.6511432594e+04
5.5623030877e+04
5.4899620546e+04
5.4294993707e+04
5.3749461830e+04
5.3194129723e+04
5.2557583328e+04
5.1774549513e+04
5.0796258614e+04
4.9600278585e+04
4.8196558710e+04
4.6627025926e+04
4.4958302614e+04
4.3269679034e+04
4.1639906024e+04
4.0136122648e+04