# vtk DataFile Version 2.0
Blank
ASCII
DATASET STRUCTURED_GRID
DIMENSIONS 101 11 2
POINTS 2222 float
0.0000000000e+00 0.0000000000e+00 0.0000000000e+00
1.0000000000e-02 0.0000000000e+00 0.0000000000e+00
2.0000000000e-02 0.0000000000e+00 0.0000000000e+00
3.0000000000e-02 0.0000000000e+00 0.0000000000e+00
4.0000000000e-02 0.0000000000e+00 0.0000000000e+00
5.0000000000e-02 0.0000000000e+00 0.0000000000e+00
6.0000000000e-02 0.0000000000e+00 0.0000000000e+00
7.0000000000e-02 0.0000000000e+00 0.0000000000e+00
8.0000000000e-02 0.0000000000e+00 0.0000000000e+00
9.0000000000e-02 0.0000000000e+00 0.0000000000e+00
1.0000000000e-01 0.0000000000e+00 0.0000000000e+00
1.1000000000e-01 0.0000000000e+00 0.0000000000e+00
1.2000000000e-01 0.0000000000e+00 0.0000000000e+00
1.3000000000e-01 0.0000000000e+00 0.0000000000e+00
1.4000000000e-01 0.0000000000e+00 0.0000000000e+00
1.5000000000e-01 0.0000000000e+00 0.0000000000e+00
1.6000000000e-01 0.0000000000e+00 0.0000000000e+00
1.7000000000e-01 0.0000000000e+00 0.0000000000e+00
1.8000000000e-01 0.0000000000e+00 0.0000000000e+00
1.9000000000e-01 0.0000000000e+00 0.0000000000e+00
2.0000000000e-01 0.0000000000e+00 0.0000000000e+00
2.1000000000e-01 0.0000000000e+00 0.0000000000e+00
2.2000000000e-01 0.0000000000e+00 0.0000000000e+00
2.3000000000e-01 0.0000000000e+00 0.0000000000e+00
2.4000000000e-01 0.0000000000e+00 0.0000000000e+00
2.5000000000e-01 0.0000000000e+00 0.0000000000e+00
2.6000000000e-01 0.0000000000e+00 0.0000000000e+00
2.7000000000e-01 0.0000000000e+00 0.0000000000e+00
2.8000000000e-01 0.0000000000e+00 0.0000000000e+00
2.9000000000e-01 0.0000000000e+00 0.0000000000e+00
3.0000000000e-01 0.0000000000e+00 0.0000000000e+00
3.1000000000e-01 0.0000000000e+00 0.0000000000e+00
3.2000000000e-01 0.0000000000e+00 0.0000000000e+00
3.3000000000e-01 0.0000000000e+00 0.0000000000e+00
3.4000000000e-01 0.0000000000e+00 0.0000000000e+00
3.5000000000e-01 0.0000000000e+00 0.0000000000e+00
3.6000000000e-01 0.0000000000e+00 0.0000000000e+00
3.7000000000e-01 0.0000000000e+00 0.0000000000e+00
3.8000000000e-01 0.0000000000e+00 0.0000000000e+00
3.9000000000e-01 0.0000000000e+00 0.0000000000e+00
4.0000000000e-01 0.0000000000e+00 0.0000000000e+00
4.1000000000e-01 0.0000000000e+00 0.0000000000e+00
4.2000000000e-01 0.0000000000e+00 0.0000000000e+00
4.3000000000e-01 0.0000000000e+00 0.0000000000e+00
4.4000000000e-01 0.0000000000e+00 0.0000000000e+00
4.5000000000e-01 0.0000000000e+00 0.0000000000e+00
4.6000000000e-01 0.0000000000e+00 0.0000000000e+00
4.7000000000e-01 0.0000000000e+00 0.0000000000e+00
4.8000000000e-01 0.0000000000e+00 0.0000000000e+00
4.9000000000e-01 0.0000000000e+00 0.0000000000e+00
5.0000000000e-01 0.0000000000e+00 0.0000000000e+00
5.1000000000e-01 0.0000000000e+00 0.0000000000e+00
5.2000000000e-01 0.0000000000e+00 0.0000000000e+00
5.3000000000e-01 0.0000000000e+00 0.0000000000e+00
5.4000000000e-01 0.0000000000e+00 0.0000000000e+00
5.5000000000e-01 0.0000000000e+00 0.0000000000e+00
5.6000000000e-01 0.0000000000e+00 0.0000000000e+00
5.7000000000e-01 0.0000000000e+00 0.0000000000e+00
5.8000000000e-01 0.0000000000e+00 0.0000000000e+00
5.9000000000e-01 0.0000000000e+00 0.0000000000e+00
6.0000000000e-01 0.0000000000e+00 0.0000000000e+00
6.1000000000e-01 0.0000000000e+00 0.0000000000e+00
6.2000000000e-01 0.0000000000e+00 0.0000000000e+00
6.3000000000e-01 0.0000000000e+00 0.0000000000e+00
6.4000000000e-01 0.0000000000e+00 0.0000000000e+00
6.5000000000e-01 0.0000000000e+00 0.0000000000e+00
6.6000000000e-01 0.0000000000e+00 0.0000000000e+00
6.7000000000e-01 0.0000000000e+00 0.0000000000e+00
6.8000000000e-01 0.0000000000e+00 0.0000000000e+00
6.9000000000e-01 0.0000000000e+00 0.0000000000e+00
7.0000000000e-01 0.0000000000e+00 0.0000000000e+00
7.1000000000e-01 0.0000000000e+00 0.0000000000e+00
7.2000000000e-01 0.0000000000e+00 0.0000000000e+00
7.3000000000e-01 0.0000000000e+00 0.0000000000e+00
7.4000000000e-01 0.0000000000e+00 0.0000000000e+00
7.5000000000e-01 0.0000000000e+00 0.0000000000e+00
7.6000000000e-01 0.0000000000e+00 0.0000000000e+00
7.7000000000e-01 0.0000000000e+00 0.0000000000e+00
7.8000000000e-01 0.0000000000e+00 0.0000000000e+00
7.9000000000e-01 0.0000000000e+00 0.0000000000e+00
8.0000000000e-01 0.0000000000e+00 0.0000000000e+00
8.1000000000e-01 0.0000000000e+00 0.0000000000e+00
8.2000000000e-01 0.0000000000e+00 0.0000000000e+00
8.3000000000e-01 0.0000000000e+00 0.0000000000e+00
8.4000000000e-01 0.0000000000e+00 0.0000000000e+00
8.5000000000e-01 0.0000000000e+00 0.0000000000e+00
8.6000000000e-01 0.0000000000e+00 0.0000000000e+00
8.7000000000e-01 0.0000000000e+00 0.0000000000e+00
8.8000000000e-01 0.0000000000e+00 0.0000000000e+00
8.9000000000e-01 0.0000000000e+00 0.0000000000e+00
9.0000000000e-01 0.0000000000e+00 0.0000000000e+00
9.1000000000e-01 0.0000000000e+00 0.0000000000e+00
9.2000000000e-01 0.0000000000e+00 0.0000000000e+00
9.3000000000e-01 0.0000000000e+00 0.0000000000e+00
9.4000000000e-01 0.0000000000e+00 0.0000000000e+00
9.5000000000e-01 0.0000000000e+00 0.0000000000e+00
9.6000000000e-01 0.0000000000e+00 0.0000000000e+00
9.7000000000e-01 0.0000000000e+00 0.0000000000e+00
9.8000000000e-01 0.0000000000e+00 0.0000000000e+00
9.9000000000e-01 0.0000000000e+00 0.0000000000e+00
1.0000000000e+00 0.0000000000e+00 0.0000000000e+00
0.0000000000e+00 1.0000000000e-03 0.0000000000e+00
1.0000000000e-02 1.0000000000e-03 0.0000000000e+00
2.0000000000e-02 1.0000000000e-03 0.0000000000e+00
3.0000000000e-02 1.0000000000e-03 0.0000000000e+00
4.0000000000e-02 1.0000000000e-03 0.0000000000e+00
5.0000000000e-02 1.0000000000e-03 0.0000000000e+00
6.0000000000e-02 1.0000000000e-03 0.0000000000e+00
7.0000000000e-02 1.0000000000e-03 0.0000000000e+00
8.0000000000e-02 1.0000000000e-03 0.0000000000e+00
9.0000000000e-02 1.0000000000e-03 0.0000000000e+00
1.0000000000e-01 1.0000000000e-03 0.0000000000e+00
1.1000000000e-01 1.0000000000e-03 0.0000000000e+00
1.2000000000e-01 1.0000000000e-03 0.0000000000e+00
1.3000000000e-01 1.0000000000e-03 0.0000000000e+00
1.4000000000e-01 1.0000000000e-03 0.0000000000e+00
1.5000000000e-01 1.0000000000e-03 0.0000000000e+00
1.6000000000e-01 1.0000000000e-03 0.0000000000e+00
1.7000000000e-01 1.0000000000e-03 0.0000000000e+00
1.8000000000e-01 1.0000000000e-03 0.0000000000e+00
1.9000000000e-01 1.0000000000e-03 0.0000000000e+00
2.0000000000e-01 1.0000000000e-03 0.0000000000e+00
2.1000000000e-01 1.0000000000e-03 0.0000000000e+00
2.2000000000e-01 1.0000000000e-03 0.0000000000e+00
2.3000000000e-01 1.0000000000e-03 0.0000000000e+00
2.4000000000e-01 1.0000000000e-03 0.0000000000e+00
2.5000000000e-01 1.0000000000e-03 0.0000000000e+00
2.6000000000e-01 1.0000000000e-03 0.0000000000e+00
2.7000000000e-01 1.0000000000e-03 0.0000000000e+00
2.8000000000e-01 1.0000000000e-03 0.0000000000e+00
2.9000000000e-01 1.0000000000e-03 0.0000000000e+00
3.0000000000e-01 1.0000000000e-03 0.0000000000e+00
3.1000000000e-01 1.0000000000e-03 0.0000000000e+00
3.2000000000e-01 1.0000000000e-03 0.0000000000e+00
3.3000000000e-01 1.0000000000e-03 0.0000000000e+00
3.4000000000e-01 1.0000000000e-03 0.0000000000e+00
3.5000000000e-01 1.0000000000e-03 0.0000000000e+00
3.6000000000e-01 1.0000000000e-03 0.0000000000e+00
3.7000000000e-01 1.0000000000e-03 0.0000000000e+00
3.8000000000e-01 1.0000000000e-03 0.0000000000e+00
3.9000000000e-01 1.0000000000e-03 0.0000000000e+00
4.0000000000e-01 1.0000000000e-03 0.0000000000e+00
4.1000000000e-01 1.0000000000e-03 0.0000000000e+00
4.2000000000e-01 1.0000000000e-03 0.0000000000e+00
4.3000000000e-01 1.0000000000e-03 0.0000000000e+00
4.4000000000e-01 1.0000000000e-03 0.0000000000e+00
4.5000000000e-01 1.0000000000e-03 0.0000000000e+00
4.6000000000e-01 1.0000000000e-03 0.0000000000e+00
4.7000000000e-01 1.0000000000e-03 0.0000000000e+00
4.8000000000e-01 1.0000000000e-03 0.0000000000e+00
4.9000000000e-01 1.0000000000e-03 0.0000000000e+00
5.0000000000e-01 1.0000000000e-03 0.0000000000e+00
5.1000000000e-01 1.0000000000e-03 0.0000000000e+00
5.2000000000e-01 1.0000000000e-03 0.0000000000e+00
5.3000000000e-01 1.0000000000e-03 0.0000000000e+00
5.4000000000e-01 1.0000000000e-03 0.0000000000e+00
5.5000000000e-01 1.0000000000e-03 0.0000000000e+00
5.6000000000e-01 1.0000000000e-03 0.0000000000e+00
5.7000000000e-01 1.0000000000e-03 0.0000000000e+00
5.8000000000e-01 1.0000000000e-03 0.0000000000e+00
5.9000000000e-01 1.0000000000e-03 0.0000000000e+00
6.0000000000e-01 1.0000000000e-03 0.0000000000e+00
6.1000000000e-01 1.0000000000e-03 0.0000000000e+00
6.2000000000e-01 1.0000000000e-03 0.0000000000e+00
6.3000000000e-01 1.0000000000e-03 0.0000000000e+00
6.4000000000e-01 1.0000000000e-03 0.0000000000e+00
6.5000000000e-01 1.0000000000e-03 0.0000000000e+00
6.6000000000e-01 1.0000000000e-03 0.0000000000e+00
6.7000000000e-01 1.0000000000e-03 0.0000000000e+00
6.8000000000e-01 1.0000000000e-03 0.0000000000e+00
6.9000000000e-01 1.0000000000e-03 0.0000000000e+00
7.0000000000e-01 1.0000000000e-03 0.0000000000e+00
7.1000000000e-01 1.0000000000e-03 0.0000000000e+00
7.2000000000e-01 1.0000000000e-03 0.0000000000e+00
7.3000000000e-01 1.0000000000e-03 0.0000000000e+00
7.4000000000e-01 1.0000000000e-03 0.0000000000e+00
7.5000000000e-01 1.0000000000e-03 0.0000000000e+00
7.6000000000e-01 1.0000000000e-03 0.0000000000e+00
7.7000000000e-01 1.0000000000e-03 0.0000000000e+00
7.8000000000e-01 1.0000000000e-03 0.0000000000e+00
7.9000000000e-01 1.0000000000e-03 0.0000000000e+00
8.0000000000e-01 1.0000000000e-03 0.0000000000e+00
8.1000000000e-01 1.0000000000e-03 0.0000000000e+00
8.2000000000e-01 1.0000000000e-03 0.0000000000e+00
8.3000000000e-01 1.0000000000e-03 0.0000000000e+00
8.4000000000e-01 1.0000000000e-03 0.0000000000e+00
8.5000000000e-01 1.0000000000e-03 0.0000000000e+00
8.6000000000e-01 1.0000000000e-03 0.0000000000e+00
8.7000000000e-01 1.0000000000e-03 0.0000000000e+00
8.8000000000e-01 1.0000000000e-03 0.0000000000e+00
8.9000000000e-01 1.0000000000e-03 0.0000000000e+00
9.0000000000e-01 1.0000000000e-03 0.0000000000e+00
9.1000000000e-01 1.0000000000e-03 0.0000000000e+00
9.2000000000e-01 1.0000000000e-03 0.0000000000e+00
[...]
CELL_DATA 1000

SCALARS massDensity float
LOOKUP_TABLE default
9.9999999995e+02
9.9999999994e+02
9.9999999990e+02
9.9999999979e+02
9.9999999946e+02
9.9999999850e+02
9.9999999578e+02
9.9999998829e+02
9.9999996822e+02
9.9999991585e+02
9.9999978299e+02
9.9999945537e+02
9.9999867084e+02
9.9999684768e+02
9.9999273932e+02
9.9998376976e+02
9.9996481406e+02
9.9992607450e+02
9.9984959043e+02
9.9970386994e+02
9.9943624872e+02
9.9896300470e+02
9.9815809540e+02
9.9684261054e+02
9.9477833917e+02
9.9166960499e+02
9.8717693552e+02
9.8094371498e+02
9.7263309184e+02
9.6196846789e+02
9.4876876332e+02
9.3297058258e+02
9.1463314393e+02
8.9392670939e+02
8.7110920184e+02
8.4649743749e+02
8.2043889964e+02
7.9328810392e+02
7.6538942470e+02
7.3706651142e+02
7.0861739182e+02
6.8031396463e+02
6.5240460264e+02
6.2511879368e+02
5.9867296309e+02
5.7327672613e+02
5.4913871115e+02
5.2647068688e+02
5.0548795600e+02
4.8640290603e+02
4.6940764722e+02
4.5464181588e+02
4.4214437622e+02
4.3179453270e+02
4.2325585646e+02
4.1596434169e+02
4.0914613455e+02
4.0193637273e+02
3.9355062415e+02
3.8346806602e+02
3.7156518979e+02
3.5814397487e+02
3.4384322351e+02
3.2947207696e+02
3.1582936684e+02
3.0356394463e+02
2.9310554067e+02
2.8467048250e+02
2.7831795023e+02
2.7397034023e+02
2.7120338154e+02
2.6860673461e+02
2.6304761647e+02
2.5019599476e+02
2.2751490450e+02
1.9783554019e+02
1.6877482060e+02
1.4719991389e+02
1.3474054026e+02
1.2886225184e+02
1.2644277585e+02
1.2552156760e+02
1.2518486512e+02
1.2506456913e+02
1.2502225300e+02
1.2500756574e+02
1.2500253562e+02
1.2500083695e+02
1.2500027185e+02
1.2500008682e+02
1.2500002725e+02
1.2500000840e+02
1.2500000254e+02
1.2500000076e+02
1.2500000022e+02
1.2500000007e+02
1.2500000002e+02
1.2500000001e+02
1.2500000001e+02
1.2500000001e+02
9.9999999995e+02
9.9999999994e+02
9.9999999990e+02
9.9999999979e+02
9.9999999946e+02
9.9999999850e+02
9.9999999578e+02
9.9999998829e+02
9.9999996822e+02
9.9999991585e+02
9.9999978299e+02
9.9999945537e+02
9.9999867084e+02
9.9999684768e+02
9.9999273932e+02
9.9998376976e+02
9.9996481406e+02
9.9992607450e+02
9.9984959043e+02
9.9970386994e+02
9.9943624872e+02
9.9896300470e+02
9.9815809540e+02
9.9684261054e+02
9.9477833917e+02
9.9166960499e+02
9.8717693552e+02
9.8094371498e+02
9.7263309184e+02
9.6196846789e+02
9.4876876332e+02
9.3297058258e+02
9.1463314393e+02
8.9392670939e+02
8.7110920184e+02
8.4649743749e+02
8.2043889964e+02
7.9328810392e+02
7.6538942470e+02
7.3706651142e+02
7.0861739182e+02
6.8031396463e+02
6.5240460264e+02
6.2511879368e+02
5.9867296309e+02
5.7327672613e+02
5.4913871115e+02
5.2647068688e+02
5.0548795600e+02
4.8640290603e+02
4.6940764722e+02
4.5464181588e+02
4.4214437622e+02
4.3179453270e+02
4.2325585646e+02
4.1596434169e+02
4.0914613455e+02
4.0193637273e+02
3.9355062415e+02
3.8346806602e+02
3.7156518979e+02
3.5814397487e+02
3.4384322351e+02
3.2947207696e+02
3.1582936684e+02
3.0356394463e+02
2.9310554067e+02
2.8467048250e+02
2.7831795023e+02
2.7397034023e+02
2.7120338154e+02
2.6860673461e+02
2.6304761647e+02
2.5019599476e+02
2.2751490450e+02
1.9783554019e+02
1.6877482060e+02
1.4719991389e+02
1.3474054026e+02
1.2886225184e+02
1.2644277585e+02
1.2552156760e+02
1.2518486512e+02
1.2506456913e+02
1.2502225300e+02
1.2500756574e+02
1.2500253562e+02
1.2500083695e+02
1.2500027185e+02
1.2500008682e+02
1.2500002725e+02
1.2500000840e+02
1.2500000254e+02
1.2500000076e+02
1.2500000022e+02
1.2500000007e+02
1.2500000002e+02
1.2500000001e+02
1.2500000001e+02
1.2500000001e+02
9.9999999995e+02
9.9999999994e+02
9.9999999990e+02
9.9999999979e+02
9.9999999946e+02
9.9999999850e+02
9.9999999578e+02
9.9999998829e+02
9.9999996822e+02
9.9999991585e+02
9.9999978299e+02
9.9999945537e+02
9.9999867084e+02
9.9999684768e+02
9.9999273932e+02
9.9998376976e+02
9.9996481406e+02
9.9992607450e+02
9.9984959043e+02
9.9970386994e+02
9.9943624872e+02
9.9896300470e+02
9.9815809540e+02
9.9684261054e+02
9.9477833917e+02
9.9166960499e+02
9.8717693552e+02
9.8094371498e+02
9.7263309184e+02
9.6196846789e+02
9.4876876332e+02
9.3297058258e+02
9.1463314393e+02
8.9392670939e+02
8.7110920184e+02
8.4649743749e+02
8.2043889964e+02
7.9328810392e+02
7.6538942470e+02
7.3706651142e+02
7.0861739182e+02
6.8031396463e+02
6.5240460264e+02
6.2511879368e+02
5.9867296309e+02
5.7327672613e+02
5.4913871115e+02
5.2647068688e+02
5.0548795600e+02
4.8640290603e+02
4.6940764722e+02
4.5464181588e+02
4.4214437622e+02
4.3179453270e+02
4.2325585646e+02
4.1596434169e+02
4.0914613455e+02
4.0193637273e+02
3.9355062415e+02
3.8346806602e+02
3.7156518979e+02
3.5814397487e+02
3.4384322351e+02
3.2947207696e+02
3.1582936684e+02
3.0356394463e+02
2.9310554067e+02
2.8467048250e+02
2.7831795023e+02
2.7397034023e+02
2.7120338154e+02
2.6860673461e+02
2.6304761647e+02
2.5019599476e+02
2.2751490450e+02
1.9783554019e+02
1.6877482060e+02
1.4719991389e+02
1.3474054026e+02
1.2886225184e+02
1.2644277585e+02
1.2552156760e+02
1.2518486512e+02
1.2506456913e+02
1.2502225300e+02
1.2500756574e+02
1.2500253562e+02
1.2500083695e+02
1.2500027185e+02
1.2500008682e+02
1.2500002725e+02
1.2500000840e+02
1.2500000254e+02
1.2500000076e+02
1.2500000022e+02
1.2500000007e+02
1.2500000002e+02
1.2500000001e+02
1.2500000001e+02
1.2500000001e+02
9.9999999995e+02
9.9999999994e+02
9.9999999990e+02
9.9999999979e+02
9.9999999946e+02
9.9999999850e+02
9.9999999578e+02
9.9999998829e+02
9.9999996822e+02
9.9999991585e+02
9.9999978299e+02
9.9999945537e+02
9.9999867084e+02
9.9999684768e+02
9.9999273932e+02
9.9998376976e+02
9.9996481406e+02
9.9992607450e+02
9.9984959043e+02
9.9970386994e+02
9.9943624872e+02
9.9896300470e+02
9.9815809540e+02
9.9684261054e+02
9.9477833917e+02
9.9166960499e+02
9.8717693552e+02
9.8094371498e+02
9.7263309184e+02
9.6196846789e+02
9.4876876332e+02
9.3297058258e+02
9.1463314393e+02
8.9392670939e+02
8.7110920184e+02
8.4649743749e+02
8.2043889964e+02
7.9328810392e+02
7.6538942470e+02
7.3706651142e+02
7.0861739182e+02
6.8031396463e+02
6.5240460264e+02
6.2511879368e+02
5.9867296309e+02
5.7327672613e+02
5.4913871115e+02
5.2647068688e+02
5.0548795600e+02
4.8640290603e+02
4.6940764722e+02
4.5464181588e+02
4.4214437622e+02
4.3179453270e+02
4.2325585646e+02
4.1596434169e+02
4.0914613455e+02
4.0193637273e+02
3.9355062415e+02
3.8346806602e+02
3.7156518979e+02
3.5814397487e+02
3.4384322351e+02
3.2947207696e+02
3.1582936684e+02
3.0356394463e+02
2.9310554067e+02
2.8467048250e+02
2.7831795023e+02
2.7397034023e+02
2.7120338154e+02
2.6860673461e+02
2.6304761647e+02
2.5019599476e+02
2.2751490450e+02
1.9783554019e+02
1.6877482060e+02
1.4719991389e+02
1.3474054026e+02
1.2886225184e+02
1.2644277585e+02
1.2552156760e+02
1.2518486512e+02
1.2506456913e+02
1.2502225300e+02
1.2500756574e+02
1.2500253562e+02
1.2500083695e+02
1.2500027185e+02
1.2500008682e+02
1.2500002725e+02
1.2500000840e+02
1.2500000254e+02
1.2500000076e+02
1.2500000022e+02
1.2500000007e+02
1.2500000002e+02
1.2500000001e+02
1.2500000001e+02
1.2500000001e+02
9.9999999995e+02
9.9999999994e+02
9.9999999990e+02
9.9999999979e+02
9.9999999946e+02
9.9999999850e+02
9.9999999578e+02
9.9999998829e+02
9.9999996822e+02
9.9999991585e+02
9.9999978299e+02
9.9999945537e+02
9.9999867084e+02
9.9999684768e+02
9.9999273932e+02
9.9998376976e+02
9.9996481406e+02
9.9992607450e+02
9.9984959043e+02
9.9970386994e+02
9.9943624872e+02
9.9896300470e+02
9.9815809540e+02
9.9684261054e+02
9.9477833917e+02
9.9166960499e+02
9.8717693552e+02
9.8094371498e+02
9.7263309184e+02
9.6196846789e+02
9.4876876332e+02
9.3297058258e+02
9.1463314393e+02
8.9392670939e+02
8.7110920184e+02
8.4649743749e+02
8.2043889964e+02
7.9328810392e+02
7.6538942470e+02
7.3706651142e+02
7.0861739182e+02
6.8031396463e+02
6.5240460264e+02
6.2511879368e+02
5.9867296309e+02
5.7327672613e+02
5.4913871115e+02
5.2647068688e+02
5.0548795600e+02
4.8640290603e+02
4.6940764722e+02
4.5464181588e+02
4.4214437622e+02
4.3179453270e+02
4.2325585646e+02
4.1596434169e+02
4.0914613455e+02
4.0193637273e+02
3.9355062415e+02
3.8346806602e+02
3.7156518979e+02
3.5814397487e+02
3.4384322351e+02
3.2947207696e+02
3.1582936684e+02
3.0356394463e+02
2.9310554067e+02
2.8467048250e+02
2.7831795023e+02
2.7397034023e+02
2.7120338154e+02
2.6860673461e+02
2.6304761647e+02
2.5019599476e+02
2.2751490450e+02
1.9783554019e+02
1.6877482060e+02
1.4719991389e+02
1.3474054026e+02
1.2886225184e+02
1.2644277585e+02
1.2552156760e+02
1.2518486512e+02
1.2506456913e+02
1.2502225300e+02
1.2500756574e+02
1.2500253562e+02
1.2500083695e+02
1.2500027185e+02
1.2500008682e+02
1.2500002725e+02
1.2500000840e+02
1.2500000254e+02
1.2500000076e+02
1.2500000022e+02
1.2500000007e+02
1.2500000002e+02
1.2500000001e+02
1.2500000001e+02
1.2500000001e+02
9.9999999995e+02
9.9999999994e+02
9.9999999990e+02
9.9999999979e+02
9.9999999946e+02
9.9999999850e+02
9.9999999578e+02
9.9999998829e+02
9.9999996822e+02
9.9999991585e+02
9.9999978299e+02
9.9999945537e+02
9.9999867084e+02
9.9999684768e+02
9.9999273932e+02
9.9998376976e+02
9.9996481406e+02
9.9992607450e+02
9.9984959043e+02
9.9970386994e+02
9.9943624872e+02
9.9896300470e+02
9.9815809540e+02
9.9684261054e+02
9.9477833917e+02
9.9166960499e+02
9.8717693552e+02
9.8094371498e+02
9.7263309184e+02
9.6196846789e+02
9.4876876332e+02
9.3297058258e+02
9.1463314393e+02
8.9392670939e+02
8.7110920184e+02
8.4649743749e+02
8.2043889964e+02
7.9328810392e+02
7.6538942470e+02
7.3706651142e+02
7.0861739182e+02
6.8031396463e+02
6.5240460264e+02
6.2511879368e+02
5.9867296309e+02
5.7327672613e+02
5.4913871115e+02
5.2647068688e+02
5.0548795600e+02
4.8640290603e+02
4.6940764722e+02
4.5464181588e+02
4.4214437622e+02
4.3179453270e+02
4.2325585646e+02
4.1596434169e+02
4.0914613455e+02
4.0193637273e+02
3.9355062415e+02
3.8346806602e+02
3.7156518979e+02
3.5814397487e+02
3.4384322351e+02
3.2947207696e+02
3.1582936684e+02
3.0356394463e+02
2.9310554067e+02
2.8467048250e+02
2.7831795023e+02
2.7397034023e+02
2.7120338154e+02
2.6860673461e+02
2.6304761647e+02
2.5019599476e+02
2.2751490450e+02
1.9783554019e+02
1.6877482060e+02
1.4719991389e+02
1.3474054026e+02
1.2886225184e+02
1.2644277585e+02
1.2552156760e+02
1.2518486512e+02
1.2506456913e+02
1.2502225300e+02
1.2500756574e+02
1.2500253562e+02
1.2500083695e+02
1.2500027185e+02
1.2500008682e+02
1.2500002725e+02
1.2500000840e+02
1.2500000254e+02
1.2500000076e+02
1.2500000022e+02
1.2500000007e+02
1.2500000002e+02
1.2500000001e+02
1.2500000001e+02
1.2500000001e+02
9.9999999995e+02
9.9999999994e+02
9.9999999990e+02
9.9999999979e+02
9.9999999946e+02
9.9999999850e+02
9.9999999578e+02
9.9999998829e+02
9.9999996822e+02
9.9999991585e+02
9.9999978299e+02
9.9999945537e+02
9.9999867084e+02
9.9999684768e+02
9.9999273932e+02
9.9998376976e+02
9.9996481406e+02
9.9992607450e+02
9.9984959043e+02
9.9970386994e+02
9.9943624872e+02
9.9896300470e+02
9.9815809540e+02
9.9684261054e+02
9.9477833917e+02
9.9166960499e+02
9.8717693552e+02
9.8094371498e+02
9.7263309184e+02
9.6196846789e+02
9.4876876332e+02
9.3297058258e+02
9.1463314393e+02
8.9392670939e+02
8.7110920184e+02
8.4649743749e+02
8.2043889964e+02
7.9328810392e+02
7.6538942470e+02
7.3706651142e+02
7.0861739182e+02
6.8031396463e+02
6.5240460264e+02
6.2511879368e+02
5.9867296309e+02
5.7327672613e+02
5.4913871115e+02
5.2647068688e+02
5.0548795600e+02
4.8640290603e+02
4.6940764722e+02
4.5464181588e+02
4.4214437622e+02
4.3179453270e+02
4.2325585646e+02
4.1596434169e+02
4.0914613455e+02
4.0193637273e+02
3.9355062415e+02
3.8346806602e+02
3.7156518979e+02
3.5814397487e+02
3.4384322351e+02
3.2947207696e+02
3.1582936684e+02
3.0356394463e+02
2.9310554067e+02
2.8467048250e+02
2.7831795023e+02
2.7397034023e+02
2.7120338154e+02
2.6860673461e+02
2.6304761647e+02
2.5019599476e+02
2.2751490450e+02
1.9783554019e+02
1.6877482060e+02
1.4719991389e+02
1.3474054026e+02
1.2886225184e+02
1.2644277585e+02
1.2552156760e+02
1.2518486512e+02
1.2506456913e+02
1.2502225300e+02
1.2500756574e+02
1.2500253562e+02
1.2500083695e+02
1.2500027185e+02
1.2500008682e+02
1.2500002725e+02
1.2500000840e+02
1.2500000254e+02
1.2500000076e+02
1.2500000022e+02
1.2500000007e+02
1.2500000002e+02
1.2500000001e+02
1.2500000001e+02
1.2500000001e+02
9.9999999995e+02
9.9999999994e+02
9.9999999990e+02
9.9999999979e+02
9.9999999946e+02
9.9999999850e+02
9.9999999578e+02
9.9999998829e+02
9.9999996822e+02
9.9999991585e+02
9.9999978299e+02
9.9999945537e+02
9.9999867084e+02
9.9999684768e+02
9.9999273932e+02
9.9998376976e+02
9.9996481406e+02
9.9992607450e+02
9.9984959043e+02
9.9970386994e+02
9.9943624872e+02
9.9896300470e+02
9.9815809540e+02
9.9684261054e+02
9.9477833917e+02
9.9166960499e+02
9.8717693552e+02
9.8094371498e+02
9.7263309184e+02
9.6196846789e+02
9.4876876332e+02
9.3297058258e+02
9.1463314393e+02
8.9392670939e+02
8.7110920184e+02
8.4649743749e+02
8.2043889964e+02
7.9328810392e+02
7.6538942470e+02
7.3706651142e+02
7.0861739182e+02
6.8031396463e+02
6.5240460264e+02
6.2511879368e+02
5.9867296309e+02
5.7327672613e+02
5.4913871115e+02
5.2647068688e+02
5.0548795600e+02
4.8640290603e+02
4.6940764722e+02
4.5464181588e+02
4.4214437622e+02
4.3179453270e+02
4.2325585646e+02
4.1596434169e+02
4.0914613455e+02
4.0193637273e+02
3.9355062415e+02
3.8346806602e+02
3.7156518979e+02
3.5814397487e+02
3.4384322351e+02
3.2947207696e+02
3.1582936684e+02
3.0356394463e+02
2.9310554067e+02
2.8467048250e+02
2.7831795023e+02
2.7397034023e+02
2.7120338154e+02
2.6860673461e+02
2.6304761647e+02
2.5019599476e+02
2.2751490450e+02
1.9783554019e+02
1.6877482060e+02
1.4719991389e+02
1.3474054026e+02
1.2886225184e+02
1.2644277585e+02
1.2552156760e+02
1.2518486512e+02
1.2506456913e+02
1.2502225300e+02
1.2500756574e+02
1.2500253562e+02
1.2500083695e+02
1.2500027185e+02
1.2500008682e+02
1.2500002725e+02
1.2500000840e+02
1.2500000254e+02
1.2500000076e+02
1.2500000022e+02
1.2500000007e+02
1.2500000002e+02
1.2500000001e+02
1.2500000001e+02
1.2500000001e+02
9.9999999995e+02
9.9999999994e+02
9.9999999990e+02
9.9999999979e+02
9.9999999946e+02
9.9999999850e+02
9.9999999578e+02
9.9999998829e+02
9.9999996822e+02
9.9999991585e+02
9.9999978299e+02
9.9999945537e+02
9.9999867084e+02
9.9999684768e+02
9.9999273932e+02
9.9998376976e+02
9.9996481406e+02
9.9992607450e+02
9.9984959043e+02
9.9970386994e+02
9.9943624872e+02
9.9896300470e+02
9.9815809540e+02
9.9684261054e+02
9.9477833917e+02
9.9166960499e+02
9.8717693552e+02
9.8094371498e+02
9.7263309184e+02
9.6196846789e+02
9.4876876332e+02
9.3297058258e+02
9.1463314393e+02
8.9392670939e+02
8.7110920184e+02
8.4649743749e+02
8.2043889964e+02
7.9328810392e+02
7.6538942470e+02
7.3706651142e+02
7.0861739182e+02
6.8031396463e+02
6.5240460264e+02
6.2511879368e+02
5.9867296309e+02
5.7327672613e+02
5.4913871115e+02
5.2647068688e+02
5.0548795600e+02
4.8640290603e+02
4.6940764722e+02
4.5464181588e+02
4.4214437622e+02
4.3179453270e+02
4.2325585646e+02
4.1596434169e+02
4.0914613455e+02
4.0193637273e+02
3.9355062415e+02
3.8346806602e+02
3.7156518979e+02
3.5814397487e+02
3.4384322351e+02
3.2947207696e+02
3.1582936684e+02
3.0356394463e+02
2.9310554067e+02
2.8467048250e+02
2.7831795023e+02
2.7397034023e+02
2.7120338154e+02
2.6860673461e+02
2.6304761647e+02
2.5019599476e+02
2.2751490450e+02
1.9783554019e+02
1.6877482060e+02
1.4719991389e+02
1.3474054026e+02
1.2886225184e+02
1.2644277585e+02
1.2552156760e+02
1.2518486512e+02
1.2506456913e+02
1.2502225300e+02
1.2500756574e+02
1.2500253562e+02
1.2500083695e+02
1.2500027185e+02
1.2500008682e+02
1.2500002725e+02
1.2500000840e+02
1.2500000254e+02
1.2500000076e+02
1.2500000022e+02
1.2500000007e+02
1.2500000002e+02
1.2500000001e+02
1.2500000001e+02
1.2500000001e+02
9.9999999995e+02
9.9999999994e+02
9.9999999990e+02
9.9999999979e+02
9.9999999946e+02
9.9999999850e+02
9.9999999578e+02
9.9999998829e+02
9.9999996822e+02
9.9999991585e+02
9.9999978299e+02
9.9999945537e+02
9.9999867084e+02
9.9999684768e+02
9.9999273932e+02
9.9998376976e+02
9.9996481406e+02
9.9992607450e+02
9.9984959043e+02
9.9970386994e+02
9.9943624872e+02
9.9896300470e+02
9.9815809540e+02
9.9684261054e+02
9.9477833917e+02
9.9166960499e+02
9.8717693552e+02
9.8094371498e+02
9.7263309184e+02
9.6196846789e+02
9.4876876332e+02
9.3297058258e+02
9.1463314393e+02
8.9392670939e+02
8.7110920184e+02
8.4649743749e+02
8.2043889964e+02
7.9328810392e+02
7.6538942470e+02
7.3706651142e+02
7.0861739182e+02
6.8031396463e+02
6.5240460264e+02
6.2511879368e+02
5.9867296309e+02
5.7327672613e+02
5.4913871115e+02
5.2647068688e+02
5.0548795600e+02
4.8640290603e+02
4.6940764722e+02
4.5464181588e+02
4.4214437622e+02
4.3179453270e+02
4.2325585646e+02
4.1596434169e+02
4.0914613455e+02
4.0193637273e+02
3.9355062415e+02
3.8346806602e+02
3.7156518979e+02
3.5814397487e+02
3.4384322351e+02
3.2947207696e+02
3.1582936684e+02
3.0356394463e+02
2.9310554067e+02
2.8467048250e+02
2.7831795023e+02
2.7397034023e+02
2.7120338154e+02
2.6860673461e+02
2.6304761647e+02
2.5019599476e+02
2.2751490450e+02
1.9783554019e+02
1.6877482060e+02
1.4719991389e+02
1.3474054026e+02
1.2886225184e+02
1.2644277585e+02
1.2552156760e+02
1.2518486512e+02
1.2506456913e+02
1.2502225300e+02
1.2500756574e+02
1.2500253562e+02
1.2500083695e+02
1.2500027185e+02
1.2500008682e+02
1.2500002725e+02
1.2500000840e+02
1.2500000254e+02
1.2500000076e+02
1.2500000022e+02
1.2500000007e+02
1.2500000002e+02
1.2500000001e+02
1.2500000001e+02
1.2500000001e+02

SCALARS molarDensity float
LOOKUP_TABLE default
1.2977624132e+05
1.2977624132e+05
1.2977624131e+05
1.2977624130e+05
1.2977624126e+05
1.2977624113e+05
1.2977624078e+05
1.2977623981e+05
1.2977623720e+05
1.2977623041e+05
1.2977621316e+05
1.2977617065e+05
1.2977606883e+05
1.2977583223e+05
1.2977529906e+05
1.2977413503e+05
1.2977167503e+05
1.2976664755e+05
1.2975672174e+05
1.2973781068e+05
1.2970307981e+05
1.2964166397e+05
1.2953720587e+05
1.2936648719e+05
1.2909859381e+05
1.2869515397e+05
1.2811211222e+05
1.2730318828e+05
1.2622466685e+05
1.2484065204e+05
1.2312764399e+05
1.2107741548e+05
1.1869765161e+05
1.1601044837e+05
1.1304927800e+05
1.0985525573e+05
1.0647347663e+05
1.0294994842e+05
9.9329362689e+04
9.5653721460e+04
9.1961701650e+04
8.8288589251e+04
8.4666617156e+04
8.1125567427e+04
7.7693526934e+04
7.4397698758e+04
7.1265157900e+04
6.8323386912e+04
6.5600326966e+04
6.3123540914e+04
6.0917960107e+04
5.9001706015e+04
5.7379835269e+04
5.6036671480e+04
5.4928554171e+04
5.3982288790e+04
5.3097447496e+04
5.2161791706e+04
5.1073520774e+04
4.9765044277e+04
4.8220333738e+04
4.6478578912e+04
4.4622681153e+04
4.2757647770e+04
4.0987148129e+04
3.9395387737e+04
3.8038135380e+04
3.6943465235e+04
3.6119057475e+04
3.5554840990e+04
3.5195755491e+04
3.4858772413e+04
3.4137330956e+04
3.2469495794e+04
2.9526029152e+04
2.5674352807e+04
2.1902961848e+04
1.9103051548e+04
1.7486120870e+04
1.6723258692e+04
1.6409268192e+04
1.6289717249e+04
1.6246021267e+04
1.6230409705e+04
1.6224918077e+04
1.6223012020e+04
1.6222359229e+04
1.6222138783e+04
1.6222065446e+04
1.6222041434e+04
1.6222033702e+04
1.6222031256e+04
1.6222030496e+04
1.6222030264e+04
1.6222030195e+04
1.6222030175e+04
1.6222030169e+04
1.6222030167e+04
1.6222030167e+04
1.6222030167e+04
1.2977624132e+05
1.2977624132e+05
1.2977624131e+05
1.2977624130e+05
1.2977624126e+05
1.2977624113e+05
1.2977624078e+05
1.2977623981e+05
1.2977623720e+05
1.2977623041e+05
1.2977621316e+05
1.2977617065e+05
1.2977606883e+05
1.2977583223e+05
1.2977529906e+05
1.2977413503e+05
1.2977167503e+05
1.2976664755e+05
1.2975672174e+05
1.2973781068e+05
1.2970307981e+05
1.2964166397e+05
1.2953720587e+05
1.2936648719e+05
1.2909859381e+05
1.2869515397e+05
1.2811211222e+05
1.2730318828e+05
1.2622466685e+05
1.2484065204e+05
1.2312764399e+05
1.2107741548e+05
1.1869765161e+05
1.1601044837e+05
1.1304927800e+05
1.0985525573e+05
1.0647347663e+05
1.0294994842e+05
9.9329362689e+04
9.5653721460e+04
9.1961701650e+04
8.8288589251e+04
8.4666617156e+04
8.1125567427e+04
7.7693526934e+04
7.4397698758e+04
7.1265157900e+04
6.8323386912e+04
6.5600326966e+04
6.3123540914e+04
6.0917960107e+04
5.9001706015e+04
5.7379835269e+04
5.6036671480e+04
5.4928554171e+04
5.3982288790e+04
5.3097447496e+04
5.2161791706e+04
5.1073520774e+04
4.9765044277e+04
4.8220333738e+04
4.6478578912e+04
4.4622681153e+04
4.2757647770e+04
4.0987148129e+04
3.9395387737e+04
3.8038135380e+04
3.6943465235e+04
3.6119057475e+04