# vtk DataFile Version 2.0
Blank
ASCII
DATASET STRUCTURED_GRID
DIMENSIONS 101 11 2
POINTS 2222 float
0.0000000000e+00 0.0000000000e+00 0.0000000000e+00
1.0000000000e-02 0.0000000000e+00 0.0000000000e+00
2.0000000000e-02 0.0000000000e+00 0.0000000000e+00
3.0000000000e-02 0.0000000000e+00 0.0000000000e+00
4.0000000000e-02 0.0000000000e+00 0.0000000000e+00
5.0000000000e-02 0.0000000000e+00 0.0000000000e+00
6.0000000000e-02 0.0000000000e+00 0.0000000000e+00
7.0000000000e-02 0.0000000000e+00 0.0000000000e+00
8.0000000000e-02 0.0000000000e+00 0.0000000000e+00
9.0000000000e-02 0.0000000000e+00 0.0000000000e+00
1.0000000000e-01 0.0000000000e+00 0.0000000000e+00
1.1000000000e-01 0.0000000000e+00 0.0000000000e+00
1.2000000000e-01 0.0000000000e+00 0.0000000000e+00
1.3000000000e-01 0.0000000000e+00 0.0000000000e+00
1.4000000000e-01 0.0000000000e+00 0.0000000000e+00
1.5000000000e-01 0.0000000000e+00 0.0000000000e+00
1.6000000000e-01 0.0000000000e+00 0.0000000000e+00
1.7000000000e-01 0.0000000000e+00 0.0000000000e+00
1.8000000000e-01 0.0000000000e+00 0.0000000000e+00
1.9000000000e-01 0.0000000000e+00 0.0000000000e+00
2.0000000000e-01 0.0000000000e+00 0.0000000000e+00
2.1000000000e-01 0.0000000000e+00 0.0000000000e+00
2.2000000000e-01 0.0000000000e+00 0.0000000000e+00
2.3000000000e-01 0.0000000000e+00 0.0000000000e+00
2.4000000000e-01 0.0000000000e+00 0.0000000000e+00
2.5000000000e-01 0.0000000000e+00 0.0000000000e+00
2.6000000000e-01 0.0000000000e+00 0.0000000000e+00
2.7000000000e-01 0.0000000000e+00 0.0000000000e+00
2.8000000000e-01 0.0000000000e+00 0.0000000000e+00
2.9000000000e-01 0.0000000000e+00 0.0000000000e+00
3.0000000000e-01 0.0000000000e+00 0.0000000000e+00
3.1000000000e-01 0.0000000000e+00 0.0000000000e+00
3.2000000000e-01 0.0000000000e+00 0.0000000000e+00
3.3000000000e-01 0.0000000000e+00 0.0000000000e+00
3.4000000000e-01 0.0000000000e+00 0.0000000000e+00
3.5000000000e-01 0.0000000000e+00 0.0000000000e+00
3.6000000000e-01 0.0000000000e+00 0.0000000000e+00
3.7000000000e-01 0.0000000000e+00 0.0000000000e+00
3.8000000000e-01 0.0000000000e+00 0.0000000000e+00
3.9000000000e-01 0.0000000000e+00 0.0000000000e+00
4.0000000000e-01 0.0000000000e+00 0.0000000000e+00
4.1000000000e-01 0.0000000000e+00 0.0000000000e+00
4.2000000000e-01 0.0000000000e+00 0.0000000000e+00
4.3000000000e-01 0.0000000000e+00 0.0000000000e+00
4.4000000000e-01 0.0000000000e+00 0.0000000000e+00
4.5000000000e-01 0.0000000000e+00 0.0000000000e+00
4.6000000000e-01 0.0000000000e+00 0.0000000000e+00
4.7000000000e-01 0.0000000000e+00 0.0000000000e+00
4.8000000000e-01 0.0000000000e+00 0.0000000000e+00
4.9000000000e-01 0.0000000000e+00 0.0000000000e+00
5.0000000000e-01 0.0000000000e+00 0.0000000000e+00
5.1000000000e-01 0.0000000000e+00 0.0000000000e+00
5.2000000000e-01 0.0000000000e+00 0.0000000000e+00
5.3000000000e-01 0.0000000000e+00 0.0000000000e+00
5.4000000000e-01 0.0000000000e+00 0.0000000000e+00
5.5000000000e-01 0.0000000000e+00 0.0000000000e+00
5.6000000000e-01 0.0000000000e+00 0.0000000000e+00
5.7000000000e-01 0.0000000000e+00 0.0000000000e+00
5.8000000000e-01 0.0000000000e+00 0.0000000000e+00
5.9000000000e-01 0.0000000000e+00 0.0000000000e+00
6.0000000000e-01 0.0000000000e+00 0.0000000000e+00
6.1000000000e-01 0.0000000000e+00 0.0000000000e+00
6.2000000000e-01 0.0000000000e+00 0.0000000000e+00
6.3000000000e-01 0.0000000000e+00 0.0000000000e+00
6.4000000000e-01 0.0000000000e+00 0.0000000000e+00
6.5000000000e-01 0.0000000000e+00 0.0000000000e+00
6.6000000000e-01 0.0000000000e+00 0.0000000000e+00
6.7000000000e-01 0.0000000000e+00 0.0000000000e+00
6.8000000000e-01 0.0000000000e+00 0.0000000000e+00
6.9000000000e-01 0.0000000000e+00 0.0000000000e+00
7.0000000000e-01 0.0000000000e+00 0.0000000000e+00
7.1000000000e-01 0.0000000000e+00 0.0000000000e+00
7.2000000000e-01 0.0000000000e+00 0.0000000000e+00
7.3000000000e-01 0.0000000000e+00 0.0000000000e+00
7.4000000000e-01 0.0000000000e+00 0.0000000000e+00
7.5000000000e-01 0.0000000000e+00 0.0000000000e+00
7.6000000000e-01 0.0000000000e+00 0.0000000000e+00
7.7000000000e-01 0.0000000000e+00 0.0000000000e+00
7.8000000000e-01 0.0000000000e+00 0.0000000000e+00
7.9000000000e-01 0.0000000000e+00 0.0000000000e+00
8.0000000000e-01 0.0000000000e+00 0.0000000000e+00
8.1000000000e-01 0.0000000000e+00 0.0000000000e+00
8.2000000000e-01 0.0000000000e+00 0.0000000000e+00
8.3000000000e-01 0.0000000000e+00 0.0000000000e+00
8.4000000000e-01 0.0000000000e+00 0.0000000000e+00
8.5000000000e-01 0.0000000000e+00 0.0000000000e+00
8.6000000000e-01 0.0000000000e+00 0.0000000000e+00
8.7000000000e-01 0.0000000000e+00 0.0000000000e+00
8.8000000000e-01 0.0000000000e+00 0.0000000000e+00
8.9000000000e-01 0.0000000000e+00 0.0000000000e+00
9.0000000000e-01 0.0000000000e+00 0.0000000000e+00
9.1000000000e-01 0.0000000000e+00 0.0000000000e+00
9.2000000000e-01 0.0000000000e+00 0.0000000000e+00
9.3000000000e-01 0.0000000000e+00 0.0000000000e+00
9.4000000000e-01 0.0000000000e+00 0.0000000000e+00
9.5000000000e-01 0.0000000000e+00 0.0000000000e+00
9.6000000000e-01 0.0000000000e+00 0.0000000000e+00
9.7000000000e-01 0.0000000000e+00 0.0000000000e+00
9.8000000000e-01 0.0000000000e+00 0.0000000000e+00
9.9000000000e-01 0.0000000000e+00 0.0000000000e+00
1.0000000000e+00 0.0000000000e+00 0.0000000000e+00
0.0000000000e+00 1.0000000000e-03 0.0000000000e+00
1.0000000000e-02 1.0000000000e-03 0.0000000000e+00
2.0000000000e-02 1.0000000000e-03 0.0000000000e+00
3.0000000000e-02 1.0000000000e-03 0.0000000000e+00
4.0000000000e-02 1.0000000000e-03 0.0000000000e+00
5.0000000000e-02 1.0000000000e-03 0.0000000000e+00
6.0000000000e-02 1.0000000000e-03 0.0000000000e+00
7.0000000000e-02 1.0000000000e-03 0.0000000000e+00
8.0000000000e-02 1.0000000000e-03 0.0000000000e+00
9.0000000000e-02 1.0000000000e-03 0.0000000000e+00
1.0000000000e-01 1.0000000000e-03 0.0000000000e+00
1.1000000000e-01 1.0000000000e-03 0.0000000000e+00
1.2000000000e-01 1.0000000000e-03 0.0000000000e+00
1.3000000000e-01 1.0000000000e-03 0.0000000000e+00
1.4000000000e-01 1.0000000000e-03 0.0000000000e+00
1.5000000000e-01 1.0000000000e-03 0.0000000000e+00
1.6000000000e-01 1.0000000000e-03 0.0000000000e+00
1.7000000000e-01 1.0000000000e-03 0.0000000000e+00
1.8000000000e-01 1.0000000000e-03 0.0000000000e+00
1.9000000000e-01 1.0000000000e-03 0.0000000000e+00
2.0000000000e-01 1.0000000000e-03 0.0000000000e+00
2.1000000000e-01 1.0000000000e-03 0.0000000000e+00
2.2000000000e-01 1.0000000000e-03 0.0000000000e+00
2.3000000000e-01 1.0000000000e-03 0.0000000000e+00
2.4000000000e-01 1.0000000000e-03 0.0000000000e+00
2.5000000000e-01 1.0000000000e-03 0.0000000000e+00
2.6000000000e-01 1.0000000000e-03 0.0000000000e+00
2.7000000000e-01 1.0000000000e-03 0.0000000000e+00
2.8000000000e-01 1.0000000000e-03 0.0000000000e+00
2.9000000000e-01 1.0000000000e-03 0.0000000000e+00
3.0000000000e-01 1.0000000000e-03 0.0000000000e+00
3.1000000000e-01 1.0000000000e-03 0.0000000000e+00
3.2000000000e-01 1.0000000000e-03 0.0000000000e+00
3.3000000000e-01 1.0000000000e-03 0.0000000000e+00
3.4000000000e-01 1.0000000000e-03 0.0000000000e+00
3.5000000000e-01 1.0000000000e-03 0.0000000000e+00
3.6000000000e-01 1.0000000000e-03 0.0000000000e+00
3.7000000000e-01 1.0000000000e-03 0.0000000000e+00
3.8000000000e-01 1.0000000000e-03 0.0000000000e+00
3.9000000000e-01 1.0000000000e-03 0.0000000000e+00
4.0000000000e-01 1.0000000000e-03 0.0000000000e+00
4.1000000000e-01 1.0000000000e-03 0.0000000000e+00
4.2000000000e-01 1.0000000000e-03 0.0000000000e+00
4.3000000000e-01 1.0000000000e-03 0.0000000000e+00
4.4000000000e-01 1.0000000000e-03 0.0000000000e+00
4.5000000000e-01 1.0000000000e-03 0.0000000000e+00
4.6000000000e-01 1.0000000000e-03 0.0000000000e+00
4.7000000000e-01 1.0000000000e-03 0.0000000000e+00
4.8000000000e-01 1.0000000000e-03 0.0000000000e+00
4.9000000000e-01 1.0000000000e-03 0.0000000000e+00
5.0000000000e-01 1.0000000000e-03 0.0000000000e+00
5.1000000000e-01 1.0000000000e-03 0.0000000000e+00
5.2000000000e-01 1.0000000000e-03 0.0000000000e+00
5.3000000000e-01 1.0000000000e-03 0.0000000000e+00
5.4000000000e-01 1.0000000000e-03 0.0000000000e+00
5.5000000000e-01 1.0000000000e-03 0.0000000000e+00
5.6000000000e-01 1.0000000000e-03 0.0000000000e+00
5.7000000000e-01 1.0000000000e-03 0.0000000000e+00
5.8000000000e-01 1.0000000000e-03 0.0000000000e+00
5.9000000000e-01 1.0000000000e-03 0.0000000000e+00
6.0000000000e-01 1.0000000000e-03 0.0000000000e+00
6.1000000000e-01 1.0000000000e-03 0.0000000000e+00
6.2000000000e-01 1.0000000000e-03 0.0000000000e+00
6.3000000000e-01 1.0000000000e-03 0.0000000000e+00
6.4000000000e-01 1.0000000000e-03 0.0000000000e+00
6.5000000000e-01 1.0000000000e-03 0.0000000000e+00
6.6000000000e-01 1.0000000000e-03 0.0000000000e+00
6.7000000000e-01 1.0000000000e-03 0.0000000000e+00
6.8000000000e-01 1.0000000000e-03 0.0000000000e+00
6.9000000000e-01 1.0000000000e-03 0.0000000000e+00
7.0000000000e-01 1.0000000000e-03 0.0000000000e+00
7.1000000000e-01 1.0000000000e-03 0.0000000000e+00
7.2000000000e-01 1.0000000000e-03 0.0000000000e+00
7.3000000000e-01 1.0000000000e-03 0.0000000000e+00
7.4000000000e-01 1.0000000000e-03 0.0000000000e+00
7.5000000000e-01 1.0000000000e-03 0.0000000000e+00
7.6000000000e-01 1.0000000000e-03 0.0000000000e+00
7.7000000000e-01 1.0000000000e-03 0.0000000000e+00
7.8000000000e-01 1.0000000000e-03 0.0000000000e+00
7.9000000000e-01 1.0000000000e-03 0.0000000000e+00
8.0000000000e-01 1.0000000000e-03 0.0000000000e+00
8.1000000000e-01 1.0000000000e-03 0.0000000000e+00
8.2000000000e-01 1.0000000000e-03 0.0000000000e+00
8.3000000000e-01 1.0000000000e-03 0.0000000000e+00
8.4000000000e-01 1.0000000000e-03 0.0000000000e+00
8.5000000000e-01 1.0000000000e-03 0.0000000000e+00
8.6000000000e-01 1.0000000000e-03 0.0000000000e+00
8.7000000000e-01 1.0000000000e-03 0.0000000000e+00
8.8000000000e-01 1.0000000000e-03 0.0000000000e+00
8.9000000000e-01 1.0000000000e-03 0.0000000000e+00
9.0000000000e-01 1.0000000000e-03 0.0000000000e+00
9.1000000000e-01 1.0000000000e-03 0.0000000000e+00
9.2000000000e-01 1.0000000000e-03 0.0000000000e+00
[...]
CELL_DATA 1000

SCALARS massDensity float
LOOKUP_TABLE default
9.9999999996e+02
9.9999999996e+02
9.9999999996e+02
9.9999999996e+02
9.9999999996e+02
9.9999999996e+02
9.9999999996e+02
9.9999999996e+02
9.9999999996e+02
9.9999999996e+02
9.9999999996e+02
9.9999999996e+02
9.9999999996e+02
9.9999999996e+02
9.9999999996e+02
9.9999999996e+02
9.9999999996e+02
9.9999999996e+02
9.9999999995e+02
9.9999999995e+02
9.9999999990e+02
9.9999999971e+02
9.9999999888e+02
9.9999999547e+02
9.9999998197e+02
9.9999993104e+02
9.9999974787e+02
9.9999912060e+02
9.9999707946e+02
9.9999078099e+02
9.9997239188e+02
9.9992172008e+02
9.9979030209e+02
9.9947046951e+02
9.9874237993e+02
9.9719700307e+02
9.9414806156e+02
9.8857048308e+02
9.7912400725e+02
9.6431296119e+02
9.4277934256e+02
9.1364609626e+02
8.7677888689e+02
8.3286482668e+02
7.8329905895e+02
7.2995690561e+02
6.7495320289e+02
6.2045731495e+02
5.6856936940e+02
5.2119182194e+02
4.7977651921e+02
4.4483142929e+02
4.1553357107e+02
3.8986259882e+02
3.6584104847e+02
3.4296235950e+02
3.2200783971e+02
3.0335254322e+02
2.8496117390e+02
2.6232627192e+02
2.3240367924e+02
1.9783030235e+02
1.6633099665e+02
1.4444910480e+02
1.3276402180e+02
1.2774675993e+02
1.2589669720e+02
1.2527672651e+02
1.2508159954e+02
1.2502307776e+02
1.2500626618e+02
1.2500163371e+02
1.2500040899e+02
1.2500009832e+02
1.2500002271e+02
1.2500000504e+02
1.2500000108e+02
1.2500000022e+02
1.2500000005e+02
1.2500000001e+02
1.2500000001e+02
1.2500000001e+02
1.2500000000e+02
1.2500000000e+02
1.2500000000e+02
1.2500000000e+02
1.2500000000e+02
1.2500000000e+02
1.2500000000e+02
1.2500000000e+02
1.2500000000e+02
1.2500000000e+02
1.2500000000e+02
1.2500000000e+02
1.2500000000e+02
1.2500000000e+02
1.2500000000e+02
1.2500000000e+02
1.2500000000e+02
1.2500000000e+02
9.9999999996e+02
9.9999999996e+02
9.9999999996e+02
9.9999999996e+02
9.9999999996e+02
9.9999999996e+02
9.9999999996e+02
9.9999999996e+02
9.9999999996e+02
9.9999999996e+02
9.9999999996e+02
9.9999999996e+02
9.9999999996e+02
9.9999999996e+02
9.9999999996e+02
9.9999999996e+02
9.9999999996e+02
9.9999999996e+02
9.9999999995e+02
9.9999999995e+02
9.9999999990e+02
9.9999999971e+02
9.9999999888e+02
9.9999999547e+02
9.9999998197e+02
9.9999993104e+02
9.9999974787e+02
9.9999912060e+02
9.9999707946e+02
9.9999078099e+02
9.9997239188e+02
9.9992172008e+02
9.9979030209e+02
9.9947046951e+02
9.9874237993e+02
9.9719700307e+02
9.9414806156e+02
9.8857048308e+02
9.7912400725e+02
9.6431296119e+02
9.4277934256e+02
9.1364609626e+02
8.7677888689e+02
8.3286482668e+02
7.8329905895e+02
7.2995690561e+02
6.7495320289e+02
6.2045731495e+02
5.6856936940e+02
5.2119182194e+02
4.7977651921e+02
4.4483142929e+02
4.1553357107e+02
3.8986259882e+02
3.6584104847e+02
3.4296235950e+02
3.2200783971e+02
3.0335254322e+02
2.8496117390e+02
2.6232627192e+02
2.3240367924e+02
1.9783030235e+02
1.6633099665e+02
1.4444910480e+02
1.3276402180e+02
1.2774675993e+02
1.2589669720e+02
1.2527672651e+02
1.2508159954e+02
1.2502307776e+02
1.2500626618e+02
1.2500163371e+02
1.2500040899e+02
1.2500009832e+02
1.2500002271e+02
1.2500000504e+02
1.2500000108e+02
1.2500000022e+02
1.2500000005e+02
1.2500000001e+02
1.2500000001e+02
1.2500000001e+02
1.2500000000e+02
1.2500000000e+02
1.2500000000e+02
1.2500000000e+02
1.2500000000e+02
1.2500000000e+02
1.2500000000e+02
1.2500000000e+02
1.2500000000e+02
1.2500000000e+02
1.2500000000e+02
1.2500000000e+02
1.2500000000e+02
1.2500000000e+02
1.2500000000e+02
1.2500000000e+02
1.2500000000e+02
1.2500000000e+02
9.9999999996e+02
9.9999999996e+02
9.9999999996e+02
9.9999999996e+02
9.9999999996e+02
9.9999999996e+02
9.9999999996e+02
9.9999999996e+02
9.9999999996e+02
9.9999999996e+02
9.9999999996e+02
9.9999999996e+02
9.9999999996e+02
9.9999999996e+02
9.9999999996e+02
9.9999999996e+02
9.9999999996e+02
9.9999999996e+02
9.9999999995e+02
9.9999999995e+02
9.9999999990e+02
9.9999999971e+02
9.9999999888e+02
9.9999999547e+02
9.9999998197e+02
9.9999993104e+02
9.9999974787e+02
9.9999912060e+02
9.9999707946e+02
9.9999078099e+02
9.9997239188e+02
9.9992172008e+02
9.9979030209e+02
9.9947046951e+02
9.9874237993e+02
9.9719700307e+02
9.9414806156e+02
9.8857048308e+02
9.7912400725e+02
9.6431296119e+02
9.4277934256e+02
9.1364609626e+02
8.7677888689e+02
8.3286482668e+02
7.8329905895e+02
7.2995690561e+02
6.7495320289e+02
6.2045731495e+02
5.6856936940e+02
5.2119182194e+02
4.7977651921e+02
4.4483142929e+02
4.1553357107e+02
3.8986259882e+02
3.6584104847e+02
3.4296235950e+02
3.2200783971e+02
3.0335254322e+02
2.8496117390e+02
2.6232627192e+02
2.3240367924e+02
1.9783030235e+02
1.6633099665e+02
1.4444910480e+02
1.3276402180e+02
1.2774675993e+02
1.2589669720e+02
1.2527672651e+02
1.2508159954e+02
1.2502307776e+02
1.2500626618e+02
1.2500163371e+02
1.2500040899e+02
1.2500009832e+02
1.2500002271e+02
1.2500000504e+02
1.2500000108e+02
1.2500000022e+02
1.2500000005e+02
1.2500000001e+02
1.2500000001e+02
1.2500000001e+02
1.2500000000e+02
1.2500000000e+02
1.2500000000e+02
1.2500000000e+02
1.2500000000e+02
1.2500000000e+02
1.2500000000e+02
1.2500000000e+02
1.2500000000e+02
1.2500000000e+02
1.2500000000e+02
1.2500000000e+02
1.2500000000e+02
1.2500000000e+02
1.2500000000e+02
1.2500000000e+02
1.2500000000e+02
1.2500000000e+02
9.9999999996e+02
9.9999999996e+02
9.9999999996e+02
9.9999999996e+02
9.9999999996e+02
9.9999999996e+02
9.9999999996e+02
9.9999999996e+02
9.9999999996e+02
9.9999999996e+02
9.9999999996e+02
9.9999999996e+02
9.9999999996e+02
9.9999999996e+02
9.9999999996e+02
9.9999999996e+02
9.9999999996e+02
9.9999999996e+02
9.9999999995e+02
9.9999999995e+02
9.9999999990e+02
9.9999999971e+02
9.9999999888e+02
9.9999999547e+02
9.9999998197e+02
9.9999993104e+02
9.9999974787e+02
9.9999912060e+02
9.9999707946e+02
9.9999078099e+02
9.9997239188e+02
9.9992172008e+02
9.9979030209e+02
9.9947046951e+02
9.9874237993e+02
9.9719700307e+02
9.9414806156e+02
9.8857048308e+02
9.7912400725e+02
9.6431296119e+02
9.4277934256e+02
9.1364609626e+02
8.7677888689e+02
8.3286482668e+02
7.8329905895e+02
7.2995690561e+02
6.7495320289e+02
6.2045731495e+02
5.6856936940e+02
5.2119182194e+02
4.7977651921e+02
4.4483142929e+02
4.1553357107e+02
3.8986259882e+02
3.6584104847e+02
3.4296235950e+02
3.2200783971e+02
3.0335254322e+02
2.8496117390e+02
2.6232627192e+02
2.3240367924e+02
1.9783030235e+02
1.6633099665e+02
1.4444910480e+02
1.3276402180e+02
1.2774675993e+02
1.2589669720e+02
1.2527672651e+02
1.2508159954e+02
1.2502307776e+02
1.2500626618e+02
1.2500163371e+02
1.2500040899e+02
1.2500009832e+02
1.2500002271e+02
1.2500000504e+02
1.2500000108e+02
1.2500000022e+02
1.2500000005e+02
1.2500000001e+02
1.2500000001e+02
1.2500000001e+02
1.2500000000e+02
1.2500000000e+02
1.2500000000e+02
1.2500000000e+02
1.2500000000e+02
1.2500000000e+02
1.2500000000e+02
1.2500000000e+02
1.2500000000e+02
1.2500000000e+02
1.2500000000e+02
1.2500000000e+02
1.2500000000e+02
1.2500000000e+02
1.2500000000e+02
1.2500000000e+02
1.2500000000e+02
1.2500000000e+02
9.9999999996e+02
9.9999999996e+02
9.9999999996e+02
9.9999999996e+02
9.9999999996e+02
9.9999999996e+02
9.9999999996e+02
9.9999999996e+02
9.9999999996e+02
9.9999999996e+02
9.9999999996e+02
9.9999999996e+02
9.9999999996e+02
9.9999999996e+02
9.9999999996e+02
9.9999999996e+02
9.9999999996e+02
9.9999999996e+02
9.9999999995e+02
9.9999999995e+02
9.9999999990e+02
9.9999999971e+02
9.9999999888e+02
9.9999999547e+02
9.9999998197e+02
9.9999993104e+02
9.9999974787e+02
9.9999912060e+02
9.9999707946e+02
9.9999078099e+02
9.9997239188e+02
9.9992172008e+02
9.9979030209e+02
9.9947046951e+02
9.9874237993e+02
9.9719700307e+02
9.9414806156e+02
9.8857048308e+02
9.7912400725e+02
9.6431296119e+02
9.4277934256e+02
9.1364609626e+02
8.7677888689e+02
8.3286482668e+02
7.8329905895e+02
7.2995690561e+02
6.7495320289e+02
6.2045731495e+02
5.6856936940e+02
5.2119182194e+02
4.7977651921e+02
4.4483142929e+02
4.1553357107e+02
3.8986259882e+02
3.6584104847e+02
3.4296235950e+02
3.2200783971e+02
3.0335254322e+02
2.8496117390e+02
2.6232627192e+02
2.3240367924e+02
1.9783030235e+02
1.6633099665e+02
1.4444910480e+02
1.3276402180e+02
1.2774675993e+02
1.2589669720e+02
1.2527672651e+02
1.2508159954e+02
1.2502307776e+02
1.2500626618e+02
1.2500163371e+02
1.2500040899e+02
1.2500009832e+02
1.2500002271e+02
1.2500000504e+02
1.2500000108e+02
1.2500000022e+02
1.2500000005e+02
1.2500000001e+02
1.2500000001e+02
1.2500000001e+02
1.2500000000e+02
1.2500000000e+02
1.2500000000e+02
1.2500000000e+02
1.2500000000e+02
1.2500000000e+02
1.2500000000e+02
1.2500000000e+02
1.2500000000e+02
1.2500000000e+02
1.2500000000e+02
1.2500000000e+02
1.2500000000e+02
1.2500000000e+02
1.2500000000e+02
1.2500000000e+02
1.2500000000e+02
1.2500000000e+02
9.9999999996e+02
9.9999999996e+02
9.9999999996e+02
9.9999999996e+02
9.9999999996e+02
9.9999999996e+02
9.9999999996e+02
9.9999999996e+02
9.9999999996e+02
9.9999999996e+02
9.9999999996e+02
9.9999999996e+02
9.9999999996e+02
9.9999999996e+02
9.9999999996e+02
9.9999999996e+02
9.9999999996e+02
9.9999999996e+02
9.9999999995e+02
9.9999999995e+02
9.9999999990e+02
9.9999999971e+02
9.9999999888e+02
9.9999999547e+02
9.9999998197e+02
9.9999993104e+02
9.9999974787e+02
9.9999912060e+02
9.9999707946e+02
9.9999078099e+02
9.9997239188e+02
9.9992172008e+02
9.9979030209e+02
9.9947046951e+02
9.9874237993e+02
9.9719700307e+02
9.9414806156e+02
9.8857048308e+02
9.7912400725e+02
9.6431296119e+02
9.4277934256e+02
9.1364609626e+02
8.7677888689e+02
8.3286482668e+02
7.8329905895e+02
7.2995690561e+02
6.7495320289e+02
6.2045731495e+02
5.6856936940e+02
5.2119182194e+02
4.7977651921e+02
4.4483142929e+02
4.1553357107e+02
3.8986259882e+02
3.6584104847e+02
3.4296235950e+02
3.2200783971e+02
3.0335254322e+02
2.8496117390e+02
2.6232627192e+02
2.3240367924e+02
1.9783030235e+02
1.6633099665e+02
1.4444910480e+02
1.3276402180e+02
1.2774675993e+02
1.2589669720e+02
1.2527672651e+02
1.2508159954e+02
1.2502307776e+02
1.2500626618e+02
1.2500163371e+02
1.2500040899e+02
1.2500009832e+02
1.2500002271e+02
1.2500000504e+02
1.2500000108e+02
1.2500000022e+02
1.2500000005e+02
1.2500000001e+02
1.2500000001e+02
1.2500000001e+02
1.2500000000e+02
1.2500000000e+02
1.2500000000e+02
1.2500000000e+02
1.2500000000e+02
1.2500000000e+02
1.2500000000e+02
1.2500000000e+02
1.2500000000e+02
1.2500000000e+02
1.2500000000e+02
1.2500000000e+02
1.2500000000e+02
1.2500000000e+02
1.2500000000e+02
1.2500000000e+02
1.2500000000e+02
1.2500000000e+02
9.9999999996e+02
9.9999999996e+02
9.9999999996e+02
9.9999999996e+02
9.9999999996e+02
9.9999999996e+02
9.9999999996e+02
9.9999999996e+02
9.9999999996e+02
9.9999999996e+02
9.9999999996e+02
9.9999999996e+02
9.9999999996e+02
9.9999999996e+02
9.9999999996e+02
9.9999999996e+02
9.9999999996e+02
9.9999999996e+02
9.9999999995e+02
9.9999999995e+02
9.9999999990e+02
9.9999999971e+02
9.9999999888e+02
9.9999999547e+02
9.9999998197e+02
9.9999993104e+02
9.9999974787e+02
9.9999912060e+02
9.9999707946e+02
9.9999078099e+02
9.9997239188e+02
9.9992172008e+02
9.9979030209e+02
9.9947046951e+02
9.9874237993e+02
9.9719700307e+02
9.9414806156e+02
9.8857048308e+02
9.7912400725e+02
9.6431296119e+02
9.4277934256e+02
9.1364609626e+02
8.7677888689e+02
8.3286482668e+02
7.8329905895e+02
7.2995690561e+02
6.7495320289e+02
6.2045731495e+02
5.6856936940e+02
5.2119182194e+02
4.7977651921e+02
4.4483142929e+02
4.1553357107e+02
3.8986259882e+02
3.6584104847e+02
3.4296235950e+02
3.2200783971e+02
3.0335254322e+02
2.8496117390e+02
2.6232627192e+02
2.3240367924e+02
1.9783030235e+02
1.6633099665e+02
1.4444910480e+02
1.3276402180e+02
1.2774675993e+02
1.2589669720e+02
1.2527672651e+02
1.2508159954e+02
1.2502307776e+02
1.2500626618e+02
1.2500163371e+02
1.2500040899e+02
1.2500009832e+02
1.2500002271e+02
1.2500000504e+02
1.2500000108e+02
1.2500000022e+02
1.2500000005e+02
1.2500000001e+02
1.2500000001e+02
1.2500000001e+02
1.2500000000e+02
1.2500000000e+02
1.2500000000e+02
1.2500000000e+02
1.2500000000e+02
1.2500000000e+02
1.2500000000e+02
1.2500000000e+02
1.2500000000e+02
1.2500000000e+02
1.2500000000e+02
1.2500000000e+02
1.2500000000e+02
1.2500000000e+02
1.2500000000e+02
1.2500000000e+02
1.2500000000e+02
1.2500000000e+02
9.9999999996e+02
9.9999999996e+02
9.9999999996e+02
9.9999999996e+02
9.9999999996e+02
9.9999999996e+02
9.9999999996e+02
9.9999999996e+02
9.9999999996e+02
9.9999999996e+02
9.9999999996e+02
9.9999999996e+02
9.9999999996e+02
9.9999999996e+02
9.9999999996e+02
9.9999999996e+02
9.9999999996e+02
9.9999999996e+02
9.9999999995e+02
9.9999999995e+02
9.9999999990e+02
9.9999999971e+02
9.9999999888e+02
9.9999999547e+02
9.9999998197e+02
9.9999993104e+02
9.9999974787e+02
9.9999912060e+02
9.9999707946e+02
9.9999078099e+02
9.9997239188e+02
9.9992172008e+02
9.9979030209e+02
9.9947046951e+02
9.9874237993e+02
9.9719700307e+02
9.9414806156e+02
9.8857048308e+02
9.7912400725e+02
9.6431296119e+02
9.4277934256e+02
9.1364609626e+02
8.7677888689e+02
8.3286482668e+02
7.8329905895e+02
7.2995690561e+02
6.7495320289e+02
6.2045731495e+02
5.6856936940e+02
5.2119182194e+02
4.7977651921e+02
4.4483142929e+02
4.1553357107e+02
3.8986259882e+02
3.6584104847e+02
3.4296235950e+02
3.2200783971e+02
3.0335254322e+02
2.8496117390e+02
2.6232627192e+02
2.3240367924e+02
1.9783030235e+02
1.6633099665e+02
1.4444910480e+02
1.3276402180e+02
1.2774675993e+02
1.2589669720e+02
1.2527672651e+02
1.2508159954e+02
1.2502307776e+02
1.2500626618e+02
1.2500163371e+02
1.2500040899e+02
1.2500009832e+02
1.2500002271e+02
1.2500000504e+02
1.2500000108e+02
1.2500000022e+02
1.2500000005e+02
1.2500000001e+02
1.2500000001e+02
1.2500000001e+02
1.2500000000e+02
1.2500000000e+02
1.2500000000e+02
1.2500000000e+02
1.2500000000e+02
1.2500000000e+02
1.2500000000e+02
1.2500000000e+02
1.2500000000e+02
1.2500000000e+02
1.2500000000e+02
1.2500000000e+02
1.2500000000e+02
1.2500000000e+02
1.2500000000e+02
1.2500000000e+02
1.2500000000e+02
1.2500000000e+02
9.9999999996e+02
9.9999999996e+02
9.9999999996e+02
9.9999999996e+02
9.9999999996e+02
9.9999999996e+02
9.9999999996e+02
9.9999999996e+02
9.9999999996e+02
9.9999999996e+02
9.9999999996e+02
9.9999999996e+02
9.9999999996e+02
9.9999999996e+02
9.9999999996e+02
9.9999999996e+02
9.9999999996e+02
9.9999999996e+02
9.9999999995e+02
9.9999999995e+02
9.9999999990e+02
9.9999999971e+02
9.9999999888e+02
9.9999999547e+02
9.9999998197e+02
9.9999993104e+02
9.9999974787e+02
9.9999912060e+02
9.9999707946e+02
9.9999078099e+02
9.9997239188e+02
9.9992172008e+02
9.9979030209e+02
9.9947046951e+02
9.9874237993e+02
9.9719700307e+02
9.9414806156e+02
9.8857048308e+02
9.7912400725e+02
9.6431296119e+02
9.4277934256e+02
9.1364609626e+02
8.7677888689e+02
8.3286482668e+02
7.8329905895e+02
7.2995690561e+02
6.7495320289e+02
6.2045731495e+02
5.6856936940e+02
5.2119182194e+02
4.7977651921e+02
4.4483142929e+02
4.1553357107e+02
3.8986259882e+02
3.6584104847e+02
3.4296235950e+02
3.2200783971e+02
3.0335254322e+02
2.8496117390e+02
2.6232627192e+02
2.3240367924e+02
1.9783030235e+02
1.6633099665e+02
1.4444910480e+02
1.3276402180e+02
1.2774675993e+02
1.2589669720e+02
1.2527672651e+02
1.2508159954e+02
1.2502307776e+02
1.2500626618e+02
1.2500163371e+02
1.2500040899e+02
1.2500009832e+02
1.2500002271e+02
1.2500000504e+02
1.2500000108e+02
1.2500000022e+02
1.2500000005e+02
1.2500000001e+02
1.2500000001e+02
1.2500000001e+02
1.2500000000e+02
1.2500000000e+02
1.2500000000e+02
1.2500000000e+02
1.2500000000e+02
1.2500000000e+02
1.2500000000e+02
1.2500000000e+02
1.2500000000e+02
1.2500000000e+02
1.2500000000e+02
1.2500000000e+02
1.2500000000e+02
1.2500000000e+02
1.2500000000e+02
1.2500000000e+02
1.2500000000e+02
1.2500000000e+02
9.9999999996e+02
9.9999999996e+02
9.9999999996e+02
9.9999999996e+02
9.9999999996e+02
9.9999999996e+02
9.9999999996e+02
9.9999999996e+02
9.9999999996e+02
9.9999999996e+02
9.9999999996e+02
9.9999999996e+02
9.9999999996e+02
9.9999999996e+02
9.9999999996e+02
9.9999999996e+02
9.9999999996e+02
9.9999999996e+02
9.9999999995e+02
9.9999999995e+02
9.9999999990e+02
9.9999999971e+02
9.9999999888e+02
9.9999999547e+02
9.9999998197e+02
9.9999993104e+02
9.9999974787e+02
9.9999912060e+02
9.9999707946e+02
9.9999078099e+02
9.9997239188e+02
9.9992172008e+02
9.9979030209e+02
9.9947046951e+02
9.9874237993e+02
9.9719700307e+02
9.9414806156e+02
9.8857048308e+02
9.7912400725e+02
9.6431296119e+02
9.4277934256e+02
9.1364609626e+02
8.7677888689e+02
8.3286482668e+02
7.8329905895e+02
7.2995690561e+02
6.7495320289e+02
6.2045731495e+02
5.6856936940e+02
5.2119182194e+02
4.7977651921e+02
4.4483142929e+02
4.1553357107e+02
3.8986259882e+02
3.6584104847e+02
3.4296235950e+02
3.2200783971e+02
3.0335254322e+02
2.8496117390e+02
2.6232627192e+02
2.3240367924e+02
1.9783030235e+02
1.6633099665e+02
1.4444910480e+02
1.3276402180e+02
1.2774675993e+02
1.2589669720e+02
1.2527672651e+02
1.2508159954e+02
1.2502307776e+02
1.2500626618e+02
1.2500163371e+02
1.2500040899e+02
1.2500009832e+02
1.2500002271e+02
1.2500000504e+02
1.2500000108e+02
1.2500000022e+02
1.2500000005e+02
1.2500000001e+02
1.2500000001e+02
1.2500000001e+02
1.2500000000e+02
1.2500000000e+02
1.2500000000e+02
1.2500000000e+02
1.2500000000e+02
1.2500000000e+02
1.2500000000e+02
1.2500000000e+02
1.2500000000e+02
1.2500000000e+02
1.2500000000e+02
1.2500000000e+02
1.2500000000e+02
1.2500000000e+02
1.2500000000e+02
1.2500000000e+02
1.2500000000e+02
1.2500000000e+02

SCALARS molarDensity float
LOOKUP_TABLE default
1.2977624132e+05
1.2977624132e+05
1.2977624132e+05
1.2977624132e+05
1.2977624132e+05
1.2977624132e+05
1.2977624132e+05
1.2977624132e+05
1.2977624132e+05
1.2977624132e+05
1.2977624132e+05
1.2977624132e+05
1.2977624132e+05
1.2977624132e+05
1.2977624132e+05
1.2977624132e+05
1.2977624132e+05
1.2977624132e+05
1.2977624132e+05
1.2977624132e+05
1.2977624131e+05
1.2977624129e+05
1.2977624118e+05
1.2977624074e+05
1.2977623899e+05
1.2977623238e+05
1.2977620861e+05
1.2977612720e+05
1.2977586231e+05
1.2977504492e+05
1.2977265845e+05
1.2976608245e+05
1.2974902752e+05
1.2970752085e+05
1.2961303212e+05
1.2941247892e+05
1.2901679875e+05
1.2829296158e+05
1.2706703345e+05
1.2514491157e+05
1.2235035948e+05
1.1856955628e+05
1.1378506842e+05
1.0808606674e+05
1.0165360771e+05
9.4731063541e+04
8.7592889743e+04
8.0520618238e+04
7.3786795695e+04
6.7638315662e+04
6.2263593340e+04
5.7728550917e+04
5.3926384999e+04
5.0594902709e+04
4.7477476194e+04
4.4508365932e+04
4.1788967116e+04
3.9367952855e+04
3.6981190073e+04
3.4043717572e+04
3.0160475962e+04
2.5673673060e+04
2.1585811561e+04
1.8746061884e+04
1.7229615733e+04
1.6578494345e+04
1.6338400158e+04
1.6257942693e+04
1.6232619848e+04
1.6225025110e+04
1.6222843367e+04
1.6222242183e+04
1.6222083243e+04
1.6222042926e+04
1.6222033112e+04
1.6222030820e+04
1.6222030306e+04
1.6222030195e+04
1.6222030172e+04
1.6222030168e+04
1.6222030167e+04
1.6222030167e+04
1.6222030166e+04
1.6222030166e+04
1.6222030166e+04
1.6222030166e+04
1.6222030166e+04
1.6222030166e+04
1.6222030166e+04
1.6222030166e+04
1.6222030166e+04
1.6222030166e+04
1.6222030166e+04
1.6222030166e+04
1.6222030166e+04
1.6222030166e+04
1.6222030166e+04
1.6222030166e+04
1.6222030166e+04
1.6222030166e+04
1.2977624132e+05
1.2977624132e+05
1.2977624132e+05
1.2977624132e+05
1.2977624132e+05
1.2977624132e+05
1.2977624132e+05
1.2977624132e+05
1.2977624132e+05
1.2977624132e+05
1.2977624132e+05
1.2977624132e+05
1.2977624132e+05
1.2977624132e+05
1.2977624132e+05
1.2977624132e+05
1.2977624132e+05
1.2977624132e+05
1.2977624132e+05
1.2977624132e+05
1.2977624131e+05
1.2977624129e+05
1.2977624118e+05
1.2977624074e+05
1.2977623899e+05
1.2977623238e+05
1.2977620861e+05
1.2977612720e+05
1.2977586231e+05
1.2977504492e+05
1.2977265845e+05
1.2976608245e+05
1.2974902752e+05
1.2970752085e+05
1.2961303212e+05
1.2941247892e+05
1.2901679875e+05
1.2829296158e+05
1.2706703345e+05
1.2514491157e+05
1.2235035948e+05
1.1856955628e+05
1.1378506842e+05
1.0808606674e+05
1.0165360771e+05
9.4731063541e+04
8.7592889743e+04
8.0520618238e+04
7.3786795695e+04
6.7638315662e+04
6.2263593340e+04
5.7728550917e+04
5.3926384999e+04
5.0594902709e+04
4.7477476194e+04
4.4508365932e+04
4.1788967116e+04
3.9367952855e+04
3.6981190073e+04
3.4043717572e+04
3.0160475962e+04
2.5673673060e+04
2.1585811561e+04
1.8746061884e+04
1.7229615733e+04
1.6578494345e+04
1.6338400158e+04
1.6257942693e+04
1.6232619848e+04