# vtk DataFile Version 2.0
Blank
ASCII
DATASET STRUCTURED_GRID
DIMENSIONS 101 11 2
POINTS 2222 float
0.0000000000e+00 0.0000000000e+00 0.0000000000e+00
1.0000000000e-02 0.0000000000e+00 0.0000000000e+00
2.0000000000e-02 0.0000000000e+00 0.0000000000e+00
3.0000000000e-02 0.0000000000e+00 0.0000000000e+00
4.0000000000e-02 0.0000000000e+00 0.0000000000e+00
5.0000000000e-02 0.0000000000e+00 0.0000000000e+00
6.0000000000e-02 0.0000000000e+00 0.0000000000e+00
7.0000000000e-02 0.0000000000e+00 0.0000000000e+00
8.0000000000e-02 0.0000000000e+00 0.0000000000e+00
9.0000000000e-02 0.0000000000e+00 0.0000000000e+00
1.0000000000e-01 0.0000000000e+00 0.0000000000e+00
1.1000000000e-01 0.0000000000e+00 0.0000000000e+00
1.2000000000e-01 0.0000000000e+00 0.0000000000e+00
1.3000000000e-01 0.0000000000e+00 0.0000000000e+00
1.4000000000e-01 0.0000000000e+00 0.0000000000e+00
1.5000000000e-01 0.0000000000e+00 0.0000000000e+00
1.6000000000e-01 0.0000000000e+00 0.0000000000e+00
1.7000000000e-01 0.0000000000e+00 0.0000000000e+00
1.8000000000e-01 0.0000000000e+00 0.0000000000e+00
1.9000000000e-01 0.0000000000e+00 0.0000000000e+00
2.0000000000e-01 0.0000000000e+00 0.0000000000e+00
2.1000000000e-01 0.0000000000e+00 0.0000000000e+00
2.2000000000e-01 0.0000000000e+00 0.0000000000e+00
2.3000000000e-01 0.0000000000e+00 0.0000000000e+00
2.4000000000e-01 0.0000000000e+00 0.0000000000e+00
2.5000000000e-01 0.0000000000e+00 0.0000000000e+00
2.6000000000e-01 0.0000000000e+00 0.0000000000e+00
2.7000000000e-01 0.0000000000e+00 0.0000000000e+00
2.8000000000e-01 0.0000000000e+00 0.0000000000e+00
2.9000000000e-01 0.0000000000e+00 0.0000000000e+00
3.0000000000e-01 0.0000000000e+00 0.0000000000e+00
3.1000000000e-01 0.0000000000e+00 0.0000000000e+00
3.2000000000e-01 0.0000000000e+00 0.0000000000e+00
3.3000000000e-01 0.0000000000e+00 0.0000000000e+00
3.4000000000e-01 0.0000000000e+00 0.0000000000e+00
3.5000000000e-01 0.0000000000e+00 0.0000000000e+00
3.6000000000e-01 0.0000000000e+00 0.0000000000e+00
3.7000000000e-01 0.0000000000e+00 0.0000000000e+00
3.8000000000e-01 0.0000000000e+00 0.0000000000e+00
3.9000000000e-01 0.0000000000e+00 0.0000000000e+00
4.0000000000e-01 0.0000000000e+00 0.0000000000e+00
4.1000000000e-01 0.0000000000e+00 0.0000000000e+00
4.2000000000e-01 0.0000000000e+00 0.0000000000e+00
4.3000000000e-01 0.0000000000e+00 0.0000000000e+00
4.4000000000e-01 0.0000000000e+00 0.0000000000e+00
4.5000000000e-01 0.0000000000e+00 0.0000000000e+00
4.6000000000e-01 0.0000000000e+00 0.0000000000e+00
4.7000000000e-01 0.0000000000e+00 0.0000000000e+00
4.8000000000e-01 0.0000000000e+00 0.0000000000e+00
4.9000000000e-01 0.0000000000e+00 0.0000000000e+00
5.0000000000e-01 0.0000000000e+00 0.0000000000e+00
5.1000000000e-01 0.0000000000e+00 0.0000000000e+00
5.2000000000e-01 0.0000000000e+00 0.0000000000e+00
5.3000000000e-01 0.0000000000e+00 0.0000000000e+00
5.4000000000e-01 0.0000000000e+00 0.0000000000e+00
5.5000000000e-01 0.0000000000e+00 0.0000000000e+00
5.6000000000e-01 0.0000000000e+00 0.0000000000e+00
5.7000000000e-01 0.0000000000e+00 0.0000000000e+00
5.8000000000e-01 0.0000000000e+00 0.0000000000e+00
5.9000000000e-01 0.0000000000e+00 0.0000000000e+00
6.0000000000e-01 0.0000000000e+00 0.0000000000e+00
6.1000000000e-01 0.0000000000e+00 0.0000000000e+00
6.2000000000e-01 0.0000000000e+00 0.0000000000e+00
6.3000000000e-01 0.0000000000e+00 0.0000000000e+00
6.4000000000e-01 0.0000000000e+00 0.0000000000e+00
6.5000000000e-01 0.0000000000e+00 0.0000000000e+00
6.6000000000e-01 0.0000000000e+00 0.0000000000e+00
6.7000000000e-01 0.0000000000e+00 0.0000000000e+00
6.8000000000e-01 0.0000000000e+00 0.0000000000e+00
6.9000000000e-01 0.0000000000e+00 0.0000000000e+00
7.0000000000e-01 0.0000000000e+00 0.0000000000e+00
7.1000000000e-01 0.0000000000e+00 0.0000000000e+00
7.2000000000e-01 0.0000000000e+00 0.0000000000e+00
7.3000000000e-01 0.0000000000e+00 0.0000000000e+00
7.4000000000e-01 0.0000000000e+00 0.0000000000e+00
7.5000000000e-01 0.0000000000e+00 0.0000000000e+00
7.6000000000e-01 0.0000000000e+00 0.0000000000e+00
7.7000000000e-01 0.0000000000e+00 0.0000000000e+00
7.8000000000e-01 0.0000000000e+00 0.0000000000e+00
7.9000000000e-01 0.0000000000e+00 0.0000000000e+00
8.0000000000e-01 0.0000000000e+00 0.0000000000e+00
8.1000000000e-01 0.0000000000e+00 0.0000000000e+00
8.2000000000e-01 0.0000000000e+00 0.0000000000e+00
8.3000000000e-01 0.0000000000e+00 0.0000000000e+00
8.4000000000e-01 0.0000000000e+00 0.0000000000e+00
8.5000000000e-01 0.0000000000e+00 0.0000000000e+00
8.6000000000e-01 0.0000000000e+00 0.0000000000e+00
8.7000000000e-01 0.0000000000e+00 0.0000000000e+00
8.8000000000e-01 0.0000000000e+00 0.0000000000e+00
8.9000000000e-01 0.0000000000e+00 0.0000000000e+00
9.0000000000e-01 0.0000000000e+00 0.0000000000e+00
9.1000000000e-01 0.0000000000e+00 0.0000000000e+00
9.2000000000e-01 0.0000000000e+00 0.0000000000e+00
9.3000000000e-01 0.0000000000e+00 0.0000000000e+00
9.4000000000e-01 0.0000000000e+00 0.0000000000e+00
9.5000000000e-01 0.0000000000e+00 0.0000000000e+00
9.6000000000e-01 0.0000000000e+00 0.0000000000e+00
9.7000000000e-01 0.0000000000e+00 0.0000000000e+00
9.8000000000e-01 0.0000000000e+00 0.0000000000e+00
9.9000000000e-01 0.0000000000e+00 0.0000000000e+00
1.0000000000e+00 0.0000000000e+00 0.0000000000e+00
0.0000000000e+00 1.0000000000e-03 0.0000000000e+00
1.0000000000e-02 1.0000000000e-03 0.0000000000e+00
2.0000000000e-02 1.0000000000e-03 0.0000000000e+00
3.0000000000e-02 1.0000000000e-03 0.0000000000e+00
4.0000000000e-02 1.0000000000e-03 0.0000000000e+00
5.0000000000e-02 1.0000000000e-03 0.0000000000e+00
6.0000000000e-02 1.0000000000e-03 0.0000000000e+00
7.0000000000e-02 1.0000000000e-03 0.0000000000e+00
8.0000000000e-02 1.0000000000e-03 0.0000000000e+00
9.0000000000e-02 1.0000000000e-03 0.0000000000e+00
1.0000000000e-01 1.0000000000e-03 0.0000000000e+00
1.1000000000e-01 1.0000000000e-03 0.0000000000e+00
1.2000000000e-01 1.0000000000e-03 0.0000000000e+00
1.3000000000e-01 1.0000000000e-03 0.0000000000e+00
1.4000000000e-01 1.0000000000e-03 0.0000000000e+00
1.5000000000e-01 1.0000000000e-03 0.0000000000e+00
1.6000000000e-01 1.0000000000e-03 0.0000000000e+00
1.7000000000e-01 1.0000000000e-03 0.0000000000e+00
1.8000000000e-01 1.0000000000e-03 0.0000000000e+00
1.9000000000e-01 1.0000000000e-03 0.0000000000e+00
2.0000000000e-01 1.0000000000e-03 0.0000000000e+00
2.1000000000e-01 1.0000000000e-03 0.0000000000e+00
2.2000000000e-01 1.0000000000e-03 0.0000000000e+00
2.3000000000e-01 1.0000000000e-03 0.0000000000e+00
2.4000000000e-01 1.0000000000e-03 0.0000000000e+00
2.5000000000e-01 1.0000000000e-03 0.0000000000e+00
2.6000000000e-01 1.0000000000e-03 0.0000000000e+00
2.7000000000e-01 1.0000000000e-03 0.0000000000e+00
2.8000000000e-01 1.0000000000e-03 0.0000000000e+00
2.9000000000e-01 1.0000000000e-03 0.0000000000e+00
3.0000000000e-01 1.0000000000e-03 0.0000000000e+00
3.1000000000e-01 1.0000000000e-03 0.0000000000e+00
3.2000000000e-01 1.0000000000e-03 0.0000000000e+00
3.3000000000e-01 1.0000000000e-03 0.0000000000e+00
3.4000000000e-01 1.0000000000e-03 0.0000000000e+00
3.5000000000e-01 1.0000000000e-03 0.0000000000e+00
3.6000000000e-01 1.0000000000e-03 0.0000000000e+00
3.7000000000e-01 1.0000000000e-03 0.0000000000e+00
3.8000000000e-01 1.0000000000e-03 0.0000000000e+00
3.9000000000e-01 1.0000000000e-03 0.0000000000e+00
4.0000000000e-01 1.0000000000e-03 0.0000000000e+00
4.1000000000e-01 1.0000000000e-03 0.0000000000e+00
4.2000000000e-01 1.0000000000e-03 0.0000000000e+00
4.3000000000e-01 1.0000000000e-03 0.0000000000e+00
4.4000000000e-01 1.0000000000e-03 0.0000000000e+00
4.5000000000e-01 1.0000000000e-03 0.0000000000e+00
4.6000000000e-01 1.0000000000e-03 0.0000000000e+00
4.7000000000e-01 1.0000000000e-03 0.0000000000e+00
4.8000000000e-01 1.0000000000e-03 0.0000000000e+00
4.9000000000e-01 1.0000000000e-03 0.0000000000e+00
5.0000000000e-01 1.0000000000e-03 0.0000000000e+00
5.1000000000e-01 1.0000000000e-03 0.0000000000e+00
5.2000000000e-01 1.0000000000e-03 0.0000000000e+00
5.3000000000e-01 1.0000000000e-03 0.0000000000e+00
5.4000000000e-01 1.0000000000e-03 0.0000000000e+00
5.5000000000e-01 1.0000000000e-03 0.0000000000e+00
5.6000000000e-01 1.0000000000e-03 0.0000000000e+00
5.7000000000e-01 1.0000000000e-03 0.0000000000e+00
5.8000000000e-01 1.0000000000e-03 0.0000000000e+00
5.9000000000e-01 1.0000000000e-03 0.0000000000e+00
6.0000000000e-01 1.0000000000e-03 0.0000000000e+00
6.1000000000e-01 1.0000000000e-03 0.0000000000e+00
6.2000000000e-01 1.0000000000e-03 0.0000000000e+00
6.3000000000e-01 1.0000000000e-03 0.0000000000e+00
6.4000000000e-01 1.0000000000e-03 0.0000000000e+00
6.5000000000e-01 1.0000000000e-03 0.0000000000e+00
6.6000000000e-01 1.0000000000e-03 0.0000000000e+00
6.7000000000e-01 1.0000000000e-03 0.0000000000e+00
6.8000000000e-01 1.0000000000e-03 0.0000000000e+00
6.9000000000e-01 1.0000000000e-03 0.0000000000e+00
7.0000000000e-01 1.0000000000e-03 0.0000000000e+00
7.1000000000e-01 1.0000000000e-03 0.0000000000e+00
7.2000000000e-01 1.0000000000e-03 0.0000000000e+00
7.3000000000e-01 1.0000000000e-03 0.0000000000e+00
7.4000000000e-01 1.0000000000e-03 0.0000000000e+00
7.5000000000e-01 1.0000000000e-03 0.0000000000e+00
7.6000000000e-01 1.0000000000e-03 0.0000000000e+00
7.7000000000e-01 1.0000000000e-03 0.0000000000e+00
7.8000000000e-01 1.0000000000e-03 0.0000000000e+00
7.9000000000e-01 1.0000000000e-03 0.0000000000e+00
8.0000000000e-01 1.0000000000e-03 0.0000000000e+00
8.1000000000e-01 1.0000000000e-03 0.0000000000e+00
8.2000000000e-01 1.0000000000e-03 0.0000000000e+00
8.3000000000e-01 1.0000000000e-03 0.0000000000e+00
8.4000000000e-01 1.0000000000e-03 0.0000000000e+00
8.5000000000e-01 1.0000000000e-03 0.0000000000e+00
8.6000000000e-01 1.0000000000e-03 0.0000000000e+00
8.7000000000e-01 1.0000000000e-03 0.0000000000e+00
8.8000000000e-01 1.0000000000e-03 0.0000000000e+00
8.9000000000e-01 1.0000000000e-03 0.0000000000e+00
9.0000000000e-01 1.0000000000e-03 0.0000000000e+00
9.1000000000e-01 1.0000000000e-03 0.0000000000e+00
9.2000000000e-01 1.0000000000e-03 0.0000000000e+00
[...]
CELL_DATA 1000

SCALARS massDensity float
LOOKUP_TABLE default
9.9999999996e+02
9.9999999996e+02
9.9999999996e+02
9.9999999996e+02
9.9999999996e+02
9.9999999996e+02
9.9999999996e+02
9.9999999996e+02
9.9999999996e+02
9.9999999996e+02
9.9999999996e+02
9.9999999995e+02
9.9999999994e+02
9.9999999989e+02
9.9999999970e+02
9.9999999903e+02
9.9999999674e+02
9.9999998911e+02
9.9999996463e+02
9.9999988893e+02
9.9999966342e+02
9.9999901704e+02
9.9999723667e+02
9.9999253050e+02
9.9998060887e+02
9.9995171281e+02
9.9988481022e+02
9.9973711764e+02
9.9942684187e+02
9.9880776435e+02
9.9763692893e+02
9.9554176816e+02
9.9199950694e+02
9.8634611555e+02
9.7782926195e+02
9.6570647013e+02
9.4936957715e+02
9.2846043982e+02
9.0294200215e+02
8.7310552337e+02
8.3951936802e+02
8.0294336636e+02
7.6423754927e+02
7.2428695050e+02
6.8395241124e+02
6.4404724355e+02
6.0533355586e+02
5.6852889283e+02
5.3431102215e+02
5.0330366941e+02
4.7601806067e+02
4.5272182733e+02
4.3322850961e+02
4.1674036809e+02
4.0184246623e+02
3.8691083924e+02
3.7081253098e+02
3.5337982229e+02
3.3541008137e+02
3.1825774752e+02
3.0329409053e+02
2.9135457065e+02
2.8200401754e+02
2.7263238580e+02
2.5857735135e+02
2.3592429599e+02
2.0565503177e+02
1.7462877456e+02
1.5054236593e+02
1.3618708530e+02
1.2934300458e+02
1.2656084953e+02
1.2553487637e+02
1.2517732924e+02
1.2505719097e+02
1.2501796758e+02
1.2500549779e+02
1.2500163740e+02
1.2500047436e+02
1.2500013361e+02
1.2500003658e+02
1.2500000973e+02
1.2500000252e+02
1.2500000064e+02
1.2500000016e+02
1.2500000004e+02
1.2500000001e+02
1.2500000001e+02
1.2500000001e+02
1.2500000000e+02
1.2500000000e+02
1.2500000000e+02
1.2500000000e+02
1.2500000000e+02
1.2500000000e+02
1.2500000000e+02
1.2500000000e+02
1.2500000000e+02
1.2500000000e+02
1.2500000000e+02
9.9999999996e+02
9.9999999996e+02
9.9999999996e+02
9.9999999996e+02
9.9999999996e+02
9.9999999996e+02
9.9999999996e+02
9.9999999996e+02
9.9999999996e+02
9.9999999996e+02
9.9999999996e+02
9.9999999995e+02
9.9999999994e+02
9.9999999989e+02
9.9999999970e+02
9.9999999903e+02
9.9999999674e+02
9.9999998911e+02
9.9999996463e+02
9.9999988893e+02
9.9999966342e+02
9.9999901704e+02
9.9999723667e+02
9.9999253050e+02
9.9998060887e+02
9.9995171281e+02
9.9988481022e+02
9.9973711764e+02
9.9942684187e+02
9.9880776435e+02
9.9763692893e+02
9.9554176816e+02
9.9199950694e+02
9.8634611555e+02
9.7782926195e+02
9.6570647013e+02
9.4936957715e+02
9.2846043982e+02
9.0294200215e+02
8.7310552337e+02
8.3951936802e+02
8.0294336636e+02
7.6423754927e+02
7.2428695050e+02
6.8395241124e+02
6.4404724355e+02
6.0533355586e+02
5.6852889283e+02
5.3431102215e+02
5.0330366941e+02
4.7601806067e+02
4.5272182733e+02
4.3322850961e+02
4.1674036809e+02
4.0184246623e+02
3.8691083924e+02
3.7081253098e+02
3.5337982229e+02
3.3541008137e+02
3.1825774752e+02
3.0329409053e+02
2.9135457065e+02
2.8200401754e+02
2.7263238580e+02
2.5857735135e+02
2.3592429599e+02
2.0565503177e+02
1.7462877456e+02
1.5054236593e+02
1.3618708530e+02
1.2934300458e+02
1.2656084953e+02
1.2553487637e+02
1.2517732924e+02
1.2505719097e+02
1.2501796758e+02
1.2500549779e+02
1.2500163740e+02
1.2500047436e+02
1.2500013361e+02
1.2500003658e+02
1.2500000973e+02
1.2500000252e+02
1.2500000064e+02
1.2500000016e+02
1.2500000004e+02
1.2500000001e+02
1.2500000001e+02
1.2500000001e+02
1.2500000000e+02
1.2500000000e+02
1.2500000000e+02
1.2500000000e+02
1.2500000000e+02
1.2500000000e+02
1.2500000000e+02
1.2500000000e+02
1.2500000000e+02
1.2500000000e+02
1.2500000000e+02
9.9999999996e+02
9.9999999996e+02
9.9999999996e+02
9.9999999996e+02
9.9999999996e+02
9.9999999996e+02
9.9999999996e+02
9.9999999996e+02
9.9999999996e+02
9.9999999996e+02
9.9999999996e+02
9.9999999995e+02
9.9999999994e+02
9.9999999989e+02
9.9999999970e+02
9.9999999903e+02
9.9999999674e+02
9.9999998911e+02
9.9999996463e+02
9.9999988893e+02
9.9999966342e+02
9.9999901704e+02
9.9999723667e+02
9.9999253050e+02
9.9998060887e+02
9.9995171281e+02
9.9988481022e+02
9.9973711764e+02
9.9942684187e+02
9.9880776435e+02
9.9763692893e+02
9.9554176816e+02
9.9199950694e+02
9.8634611555e+02
9.7782926195e+02
9.6570647013e+02
9.4936957715e+02
9.2846043982e+02
9.0294200215e+02
8.7310552337e+02
8.3951936802e+02
8.0294336636e+02
7.6423754927e+02
7.2428695050e+02
6.8395241124e+02
6.4404724355e+02
6.0533355586e+02
5.6852889283e+02
5.3431102215e+02
5.0330366941e+02
4.7601806067e+02
4.5272182733e+02
4.3322850961e+02
4.1674036809e+02
4.0184246623e+02
3.8691083924e+02
3.7081253098e+02
3.5337982229e+02
3.3541008137e+02
3.1825774752e+02
3.0329409053e+02
2.9135457065e+02
2.8200401754e+02
2.7263238580e+02
2.5857735135e+02
2.3592429599e+02
2.0565503177e+02
1.7462877456e+02
1.5054236593e+02
1.3618708530e+02
1.2934300458e+02
1.2656084953e+02
1.2553487637e+02
1.2517732924e+02
1.2505719097e+02
1.2501796758e+02
1.2500549779e+02
1.2500163740e+02
1.2500047436e+02
1.2500013361e+02
1.2500003658e+02
1.2500000973e+02
1.2500000252e+02
1.2500000064e+02
1.2500000016e+02
1.2500000004e+02
1.2500000001e+02
1.2500000001e+02
1.2500000001e+02
1.2500000000e+02
1.2500000000e+02
1.2500000000e+02
1.2500000000e+02
1.2500000000e+02
1.2500000000e+02
1.2500000000e+02
1.2500000000e+02
1.2500000000e+02
1.2500000000e+02
1.2500000000e+02
9.9999999996e+02
9.9999999996e+02
9.9999999996e+02
9.9999999996e+02
9.9999999996e+02
9.9999999996e+02
9.9999999996e+02
9.9999999996e+02
9.9999999996e+02
9.9999999996e+02
9.9999999996e+02
9.9999999995e+02
9.9999999994e+02
9.9999999989e+02
9.9999999970e+02
9.9999999903e+02
9.9999999674e+02
9.9999998911e+02
9.9999996463e+02
9.9999988893e+02
9.9999966342e+02
9.9999901704e+02
9.9999723667e+02
9.9999253050e+02
9.9998060887e+02
9.9995171281e+02
9.9988481022e+02
9.9973711764e+02
9.9942684187e+02
9.9880776435e+02
9.9763692893e+02
9.9554176816e+02
9.9199950694e+02
9.8634611555e+02
9.7782926195e+02
9.6570647013e+02
9.4936957715e+02
9.2846043982e+02
9.0294200215e+02
8.7310552337e+02
8.3951936802e+02
8.0294336636e+02
7.6423754927e+02
7.2428695050e+02
6.8395241124e+02
6.4404724355e+02
6.0533355586e+02
5.6852889283e+02
5.3431102215e+02
5.0330366941e+02
4.7601806067e+02
4.5272182733e+02
4.3322850961e+02
4.1674036809e+02
4.0184246623e+02
3.8691083924e+02
3.7081253098e+02
3.5337982229e+02
3.3541008137e+02
3.1825774752e+02
3.0329409053e+02
2.9135457065e+02
2.8200401754e+02
2.7263238580e+02
2.5857735135e+02
2.3592429599e+02
2.0565503177e+02
1.7462877456e+02
1.5054236593e+02
1.3618708530e+02
1.2934300458e+02
1.2656084953e+02
1.2553487637e+02
1.2517732924e+02
1.2505719097e+02
1.2501796758e+02
1.2500549779e+02
1.2500163740e+02
1.2500047436e+02
1.2500013361e+02
1.2500003658e+02
1.2500000973e+02
1.2500000252e+02
1.2500000064e+02
1.2500000016e+02
1.2500000004e+02
1.2500000001e+02
1.2500000001e+02
1.2500000001e+02
1.2500000000e+02
1.2500000000e+02
1.2500000000e+02
1.2500000000e+02
1.2500000000e+02
1.2500000000e+02
1.2500000000e+02
1.2500000000e+02
1.2500000000e+02
1.2500000000e+02
1.2500000000e+02
9.9999999996e+02
9.9999999996e+02
9.9999999996e+02
9.9999999996e+02
9.9999999996e+02
9.9999999996e+02
9.9999999996e+02
9.9999999996e+02
9.9999999996e+02
9.9999999996e+02
9.9999999996e+02
9.9999999995e+02
9.9999999994e+02
9.9999999989e+02
9.9999999970e+02
9.9999999903e+02
9.9999999674e+02
9.9999998911e+02
9.9999996463e+02
9.9999988893e+02
9.9999966342e+02
9.9999901704e+02
9.9999723667e+02
9.9999253050e+02
9.9998060887e+02
9.9995171281e+02
9.9988481022e+02
9.9973711764e+02
9.9942684187e+02
9.9880776435e+02
9.9763692893e+02
9.9554176816e+02
9.9199950694e+02
9.8634611555e+02
9.7782926195e+02
9.6570647013e+02
9.4936957715e+02
9.2846043982e+02
9.0294200215e+02
8.7310552337e+02
8.3951936802e+02
8.0294336636e+02
7.6423754927e+02
7.2428695050e+02
6.8395241124e+02
6.4404724355e+02
6.0533355586e+02
5.6852889283e+02
5.3431102215e+02
5.0330366941e+02
4.7601806067e+02
4.5272182733e+02
4.3322850961e+02
4.1674036809e+02
4.0184246623e+02
3.8691083924e+02
3.7081253098e+02
3.5337982229e+02
3.3541008137e+02
3.1825774752e+02
3.0329409053e+02
2.9135457065e+02
2.8200401754e+02
2.7263238580e+02
2.5857735135e+02
2.3592429599e+02
2.0565503177e+02
1.7462877456e+02
1.5054236593e+02
1.3618708530e+02
1.2934300458e+02
1.2656084953e+02
1.2553487637e+02
1.2517732924e+02
1.2505719097e+02
1.2501796758e+02
1.2500549779e+02
1.2500163740e+02
1.2500047436e+02
1.2500013361e+02
1.2500003658e+02
1.2500000973e+02
1.2500000252e+02
1.2500000064e+02
1.2500000016e+02
1.2500000004e+02
1.2500000001e+02
1.2500000001e+02
1.2500000001e+02
1.2500000000e+02
1.2500000000e+02
1.2500000000e+02
1.2500000000e+02
1.2500000000e+02
1.2500000000e+02
1.2500000000e+02
1.2500000000e+02
1.2500000000e+02
1.2500000000e+02
1.2500000000e+02
9.9999999996e+02
9.9999999996e+02
9.9999999996e+02
9.9999999996e+02
9.9999999996e+02
9.9999999996e+02
9.9999999996e+02
9.9999999996e+02
9.9999999996e+02
9.9999999996e+02
9.9999999996e+02
9.9999999995e+02
9.9999999994e+02
9.9999999989e+02
9.9999999970e+02
9.9999999903e+02
9.9999999674e+02
9.9999998911e+02
9.9999996463e+02
9.9999988893e+02
9.9999966342e+02
9.9999901704e+02
9.9999723667e+02
9.9999253050e+02
9.9998060887e+02
9.9995171281e+02
9.9988481022e+02
9.9973711764e+02
9.9942684187e+02
9.9880776435e+02
9.9763692893e+02
9.9554176816e+02
9.9199950694e+02
9.8634611555e+02
9.7782926195e+02
9.6570647013e+02
9.4936957715e+02
9.2846043982e+02
9.0294200215e+02
8.7310552337e+02
8.3951936802e+02
8.0294336636e+02
7.6423754927e+02
7.2428695050e+02
6.8395241124e+02
6.4404724355e+02
6.0533355586e+02
5.6852889283e+02
5.3431102215e+02
5.0330366941e+02
4.7601806067e+02
4.5272182733e+02
4.3322850961e+02
4.1674036809e+02
4.0184246623e+02
3.8691083924e+02
3.7081253098e+02
3.5337982229e+02
3.3541008137e+02
3.1825774752e+02
3.0329409053e+02
2.9135457065e+02
2.8200401754e+02
2.7263238580e+02
2.5857735135e+02
2.3592429599e+02
2.0565503177e+02
1.7462877456e+02
1.5054236593e+02
1.3618708530e+02
1.2934300458e+02
1.2656084953e+02
1.2553487637e+02
1.2517732924e+02
1.2505719097e+02
1.2501796758e+02
1.2500549779e+02
1.2500163740e+02
1.2500047436e+02
1.2500013361e+02
1.2500003658e+02
1.2500000973e+02
1.2500000252e+02
1.2500000064e+02
1.2500000016e+02
1.2500000004e+02
1.2500000001e+02
1.2500000001e+02
1.2500000001e+02
1.2500000000e+02
1.2500000000e+02
1.2500000000e+02
1.2500000000e+02
1.2500000000e+02
1.2500000000e+02
1.2500000000e+02
1.2500000000e+02
1.2500000000e+02
1.2500000000e+02
1.2500000000e+02
9.9999999996e+02
9.9999999996e+02
9.9999999996e+02
9.9999999996e+02
9.9999999996e+02
9.9999999996e+02
9.9999999996e+02
9.9999999996e+02
9.9999999996e+02
9.9999999996e+02
9.9999999996e+02
9.9999999995e+02
9.9999999994e+02
9.9999999989e+02
9.9999999970e+02
9.9999999903e+02
9.9999999674e+02
9.9999998911e+02
9.9999996463e+02
9.9999988893e+02
9.9999966342e+02
9.9999901704e+02
9.9999723667e+02
9.9999253050e+02
9.9998060887e+02
9.9995171281e+02
9.9988481022e+02
9.9973711764e+02
9.9942684187e+02
9.9880776435e+02
9.9763692893e+02
9.9554176816e+02
9.9199950694e+02
9.8634611555e+02
9.7782926195e+02
9.6570647013e+02
9.4936957715e+02
9.2846043982e+02
9.0294200215e+02
8.7310552337e+02
8.3951936802e+02
8.0294336636e+02
7.6423754927e+02
7.2428695050e+02
6.8395241124e+02
6.4404724355e+02
6.0533355586e+02
5.6852889283e+02
5.3431102215e+02
5.0330366941e+02
4.7601806067e+02
4.5272182733e+02
4.3322850961e+02
4.1674036809e+02
4.0184246623e+02
3.8691083924e+02
3.7081253098e+02
3.5337982229e+02
3.3541008137e+02
3.1825774752e+02
3.0329409053e+02
2.9135457065e+02
2.8200401754e+02
2.7263238580e+02
2.5857735135e+02
2.3592429599e+02
2.0565503177e+02
1.7462877456e+02
1.5054236593e+02
1.3618708530e+02
1.2934300458e+02
1.2656084953e+02
1.2553487637e+02
1.2517732924e+02
1.2505719097e+02
1.2501796758e+02
1.2500549779e+02
1.2500163740e+02
1.2500047436e+02
1.2500013361e+02
1.2500003658e+02
1.2500000973e+02
1.2500000252e+02
1.2500000064e+02
1.2500000016e+02
1.2500000004e+02
1.2500000001e+02
1.2500000001e+02
1.2500000001e+02
1.2500000000e+02
1.2500000000e+02
1.2500000000e+02
1.2500000000e+02
1.2500000000e+02
1.2500000000e+02
1.2500000000e+02
1.2500000000e+02
1.2500000000e+02
1.2500000000e+02
1.2500000000e+02
9.9999999996e+02
9.9999999996e+02
9.9999999996e+02
9.9999999996e+02
9.9999999996e+02
9.9999999996e+02
9.9999999996e+02
9.9999999996e+02
9.9999999996e+02
9.9999999996e+02
9.9999999996e+02
9.9999999995e+02
9.9999999994e+02
9.9999999989e+02
9.9999999970e+02
9.9999999903e+02
9.9999999674e+02
9.9999998911e+02
9.9999996463e+02
9.9999988893e+02
9.9999966342e+02
9.9999901704e+02
9.9999723667e+02
9.9999253050e+02
9.9998060887e+02
9.9995171281e+02
9.9988481022e+02
9.9973711764e+02
9.9942684187e+02
9.9880776435e+02
9.9763692893e+02
9.9554176816e+02
9.9199950694e+02
9.8634611555e+02
9.7782926195e+02
9.6570647013e+02
9.4936957715e+02
9.2846043982e+02
9.0294200215e+02
8.7310552337e+02
8.3951936802e+02
8.0294336636e+02
7.6423754927e+02
7.2428695050e+02
6.8395241124e+02
6.4404724355e+02
6.0533355586e+02
5.6852889283e+02
5.3431102215e+02
5.0330366941e+02
4.7601806067e+02
4.5272182733e+02
4.3322850961e+02
4.1674036809e+02
4.0184246623e+02
3.8691083924e+02
3.7081253098e+02
3.5337982229e+02
3.3541008137e+02
3.1825774752e+02
3.0329409053e+02
2.9135457065e+02
2.8200401754e+02
2.7263238580e+02
2.5857735135e+02
2.3592429599e+02
2.0565503177e+02
1.7462877456e+02
1.5054236593e+02
1.3618708530e+02
1.2934300458e+02
1.2656084953e+02
1.2553487637e+02
1.2517732924e+02
1.2505719097e+02
1.2501796758e+02
1.2500549779e+02
1.2500163740e+02
1.2500047436e+02
1.2500013361e+02
1.2500003658e+02
1.2500000973e+02
1.2500000252e+02
1.2500000064e+02
1.2500000016e+02
1.2500000004e+02
1.2500000001e+02
1.2500000001e+02
1.2500000001e+02
1.2500000000e+02
1.2500000000e+02
1.2500000000e+02
1.2500000000e+02
1.2500000000e+02
1.2500000000e+02
1.2500000000e+02
1.2500000000e+02
1.2500000000e+02
1.2500000000e+02
1.2500000000e+02
9.9999999996e+02
9.9999999996e+02
9.9999999996e+02
9.9999999996e+02
9.9999999996e+02
9.9999999996e+02
9.9999999996e+02
9.9999999996e+02
9.9999999996e+02
9.9999999996e+02
9.9999999996e+02
9.9999999995e+02
9.9999999994e+02
9.9999999989e+02
9.9999999970e+02
9.9999999903e+02
9.9999999674e+02
9.9999998911e+02
9.9999996463e+02
9.9999988893e+02
9.9999966342e+02
9.9999901704e+02
9.9999723667e+02
9.9999253050e+02
9.9998060887e+02
9.9995171281e+02
9.9988481022e+02
9.9973711764e+02
9.9942684187e+02
9.9880776435e+02
9.9763692893e+02
9.9554176816e+02
9.9199950694e+02
9.8634611555e+02
9.7782926195e+02
9.6570647013e+02
9.4936957715e+02
9.2846043982e+02
9.0294200215e+02
8.7310552337e+02
8.3951936802e+02
8.0294336636e+02
7.6423754927e+02
7.2428695050e+02
6.8395241124e+02
6.4404724355e+02
6.0533355586e+02
5.6852889283e+02
5.3431102215e+02
5.0330366941e+02
4.7601806067e+02
4.5272182733e+02
4.3322850961e+02
4.1674036809e+02
4.0184246623e+02
3.8691083924e+02
3.7081253098e+02
3.5337982229e+02
3.3541008137e+02
3.1825774752e+02
3.0329409053e+02
2.9135457065e+02
2.8200401754e+02
2.7263238580e+02
2.5857735135e+02
2.3592429599e+02
2.0565503177e+02
1.7462877456e+02
1.5054236593e+02
1.3618708530e+02
1.2934300458e+02
1.2656084953e+02
1.2553487637e+02
1.2517732924e+02
1.2505719097e+02
1.2501796758e+02
1.2500549779e+02
1.2500163740e+02
1.2500047436e+02
1.2500013361e+02
1.2500003658e+02
1.2500000973e+02
1.2500000252e+02
1.2500000064e+02
1.2500000016e+02
1.2500000004e+02
1.2500000001e+02
1.2500000001e+02
1.2500000001e+02
1.2500000000e+02
1.2500000000e+02
1.2500000000e+02
1.2500000000e+02
1.2500000000e+02
1.2500000000e+02
1.2500000000e+02
1.2500000000e+02
1.2500000000e+02
1.2500000000e+02
1.2500000000e+02
9.9999999996e+02
9.9999999996e+02
9.9999999996e+02
9.9999999996e+02
9.9999999996e+02
9.9999999996e+02
9.9999999996e+02
9.9999999996e+02
9.9999999996e+02
9.9999999996e+02
9.9999999996e+02
9.9999999995e+02
9.9999999994e+02
9.9999999989e+02
9.9999999970e+02
9.9999999903e+02
9.9999999674e+02
9.9999998911e+02
9.9999996463e+02
9.9999988893e+02
9.9999966342e+02
9.9999901704e+02
9.9999723667e+02
9.9999253050e+02
9.9998060887e+02
9.9995171281e+02
9.9988481022e+02
9.9973711764e+02
9.9942684187e+02
9.9880776435e+02
9.9763692893e+02
9.9554176816e+02
9.9199950694e+02
9.8634611555e+02
9.7782926195e+02
9.6570647013e+02
9.4936957715e+02
9.2846043982e+02
9.0294200215e+02
8.7310552337e+02
8.3951936802e+02
8.0294336636e+02
7.6423754927e+02
7.2428695050e+02
6.8395241124e+02
6.4404724355e+02
6.0533355586e+02
5.6852889283e+02
5.3431102215e+02
5.0330366941e+02
4.7601806067e+02
4.5272182733e+02
4.3322850961e+02
4.1674036809e+02
4.0184246623e+02
3.8691083924e+02
3.7081253098e+02
3.5337982229e+02
3.3541008137e+02
3.1825774752e+02
3.0329409053e+02
2.9135457065e+02
2.8200401754e+02
2.7263238580e+02
2.5857735135e+02
2.3592429599e+02
2.0565503177e+02
1.7462877456e+02
1.5054236593e+02
1.3618708530e+02
1.2934300458e+02
1.2656084953e+02
1.2553487637e+02
1.2517732924e+02
1.2505719097e+02
1.2501796758e+02
1.2500549779e+02
1.2500163740e+02
1.2500047436e+02
1.2500013361e+02
1.2500003658e+02
1.2500000973e+02
1.2500000252e+02
1.2500000064e+02
1.2500000016e+02
1.2500000004e+02
1.2500000001e+02
1.2500000001e+02
1.2500000001e+02
1.2500000000e+02
1.2500000000e+02
1.2500000000e+02
1.2500000000e+02
1.2500000000e+02
1.2500000000e+02
1.2500000000e+02
1.2500000000e+02
1.2500000000e+02
1.2500000000e+02
1.2500000000e+02

SCALARS molarDensity float
LOOKUP_TABLE default
1.2977624132e+05
1.2977624132e+05
1.2977624132e+05
1.2977624132e+05
1.2977624132e+05
1.2977624132e+05
1.2977624132e+05
1.2977624132e+05
1.2977624132e+05
1.2977624132e+05
1.2977624132e+05
1.2977624132e+05
1.2977624132e+05
1.2977624131e+05
1.2977624129e+05
1.2977624120e+05
1.2977624090e+05
1.2977623991e+05
1.2977623674e+05
1.2977622691e+05
1.2977619765e+05
1.2977611376e+05
1.2977588271e+05
1.2977527196e+05
1.2977372482e+05
1.2976997480e+05
1.2976129243e+05
1.2974212544e+05
1.2970185902e+05
1.2962151747e+05
1.2946957085e+05
1.2919766876e+05
1.2873796741e+05
1.2800429152e+05
1.2689900627e+05
1.2532575592e+05
1.2320561535e+05
1.2049210610e+05
1.1718041917e+05
1.1330835311e+05
1.0894966810e+05
1.0420297209e+05
9.9179876625e+04
9.3995238079e+04
8.8760773177e+04
8.3582030504e+04
7.8557913628e+04
7.3781542798e+04
6.9340876155e+04
6.5316858462e+04
6.1775834717e+04
5.8752537117e+04
5.6222767613e+04
5.4082998580e+04
5.2149604873e+04
5.0211834445e+04
4.8122656508e+04
4.5860305098e+04
4.3528259663e+04
4.1302294246e+04
3.9360367085e+04
3.7810901073e+04
3.6597421436e+04
3.5381206293e+04
3.3557196750e+04
3.0617368371e+04
2.6689137033e+04
2.2662665990e+04
1.9536822410e+04
1.7673848048e+04
1.6785648976e+04
1.6424591351e+04
1.6291444411e+04
1.6245043288e+04
1.6229452194e+04
1.6224361931e+04
1.6222743649e+04
1.6222242661e+04
1.6222091727e+04
1.6222047505e+04
1.6222034913e+04
1.6222031429e+04
1.6222030493e+04
1.6222030248e+04
1.6222030186e+04
1.6222030171e+04
1.6222030168e+04
1.6222030167e+04
1.6222030167e+04
1.6222030166e+04
1.6222030166e+04
1.6222030166e+04
1.6222030166e+04
1.6222030166e+04
1.6222030166e+04
1.6222030166e+04
1.6222030166e+04
1.6222030166e+04
1.6222030166e+04
1.6222030166e+04
1.2977624132e+05
1.2977624132e+05
1.2977624132e+05
1.2977624132e+05
1.2977624132e+05
1.2977624132e+05
1.2977624132e+05
1.2977624132e+05
1.2977624132e+05
1.2977624132e+05
1.2977624132e+05
1.2977624132e+05
1.2977624132e+05
1.2977624131e+05
1.2977624129e+05
1.2977624120e+05
1.2977624090e+05
1.2977623991e+05
1.2977623674e+05
1.2977622691e+05
1.2977619765e+05
1.2977611376e+05
1.2977588271e+05
1.2977527196e+05
1.2977372482e+05
1.2976997480e+05
1.2976129243e+05
1.2974212544e+05
1.2970185902e+05
1.2962151747e+05
1.2946957085e+05
1.2919766876e+05
1.2873796741e+05
1.2800429152e+05
1.2689900627e+05
1.2532575592e+05
1.2320561535e+05
1.2049210610e+05
1.1718041917e+05
1.1330835311e+05
1.0894966810e+05
1.0420297209e+05
9.9179876625e+04
9.3995238079e+04
8.8760773177e+04
8.3582030504e+04
7.8557913628e+04
7.3781542798e+04
6.9340876155e+04
6.5316858462e+04
6.1775834717e+04
5.8752537117e+04
5.6222767613e+04
5.4082998580e+04
5.2149604873e+04
5.0211834445e+04
4.8122656508e+04
4.5860305098e+04
4.3528259663e+04
4.1302294246e+04
3.9360367085e+04
3.7810901073e+04
3.6597421436e+04
3.5381206293e+04
3.3557196750e+04
3.0617368371e+04
2.6689137033e+04
2.2662665990e+04
1.9536822410e+04