# vtk DataFile Version 2.0
Blank
ASCII
DATASET STRUCTURED_GRID
DIMENSIONS 101 11 2
POINTS 2222 float
0.0000000000e+00 0.0000000000e+00 0.0000000000e+00
1.0000000000e-02 0.0000000000e+00 0.0000000000e+00
2.0000000000e-02 0.0000000000e+00 0.0000000000e+00
3.0000000000e-02 0.0000000000e+00 0.0000000000e+00
4.0000000000e-02 0.0000000000e+00 0.0000000000e+00
5.0000000000e-02 0.0000000000e+00 0.0000000000e+00
6.0000000000e-02 0.0000000000e+00 0.0000000000e+00
7.0000000000e-02 0.0000000000e+00 0.0000000000e+00
8.0000000000e-02 0.0000000000e+00 0.0000000000e+00
9.0000000000e-02 0.0000000000e+00 0.0000000000e+00
1.0000000000e-01 0.0000000000e+00 0.0000000000e+00
1.1000000000e-01 0.0000000000e+00 0.0000000000e+00
1.2000000000e-01 0.0000000000e+00 0.0000000000e+00
1.3000000000e-01 0.0000000000e+00 0.0000000000e+00
1.4000000000e-01 0.0000000000e+00 0.0000000000e+00
1.5000000000e-01 0.0000000000e+00 0.0000000000e+00
1.6000000000e-01 0.0000000000e+00 0.0000000000e+00
1.7000000000e-01 0.0000000000e+00 0.0000000000e+00
1.8000000000e-01 0.0000000000e+00 0.0000000000e+00
1.9000000000e-01 0.0000000000e+00 0.0000000000e+00
2.0000000000e-01 0.0000000000e+00 0.0000000000e+00
2.1000000000e-01 0.0000000000e+00 0.0000000000e+00
2.2000000000e-01 0.0000000000e+00 0.0000000000e+00
2.3000000000e-01 0.0000000000e+00 0.0000000000e+00
2.4000000000e-01 0.0000000000e+00 0.0000000000e+00
2.5000000000e-01 0.0000000000e+00 0.0000000000e+00
2.6000000000e-01 0.0000000000e+00 0.0000000000e+00
2.7000000000e-01 0.0000000000e+00 0.0000000000e+00
2.8000000000e-01 0.0000000000e+00 0.0000000000e+00
2.9000000000e-01 0.0000000000e+00 0.0000000000e+00
3.0000000000e-01 0.0000000000e+00 0.0000000000e+00
3.1000000000e-01 0.0000000000e+00 0.0000000000e+00
3.2000000000e-01 0.0000000000e+00 0.0000000000e+00
3.3000000000e-01 0.0000000000e+00 0.0000000000e+00
3.4000000000e-01 0.0000000000e+00 0.0000000000e+00
3.5000000000e-01 0.0000000000e+00 0.0000000000e+00
3.6000000000e-01 0.0000000000e+00 0.0000000000e+00
3.7000000000e-01 0.0000000000e+00 0.0000000000e+00
3.8000000000e-01 0.0000000000e+00 0.0000000000e+00
3.9000000000e-01 0.0000000000e+00 0.0000000000e+00
4.0000000000e-01 0.0000000000e+00 0.0000000000e+00
4.1000000000e-01 0.0000000000e+00 0.0000000000e+00
4.2000000000e-01 0.0000000000e+00 0.0000000000e+00
4.3000000000e-01 0.0000000000e+00 0.0000000000e+00
4.4000000000e-01 0.0000000000e+00 0.0000000000e+00
4.5000000000e-01 0.0000000000e+00 0.0000000000e+00
4.6000000000e-01 0.0000000000e+00 0.0000000000e+00
4.7000000000e-01 0.0000000000e+00 0.0000000000e+00
4.8000000000e-01 0.0000000000e+00 0.0000000000e+00
4.9000000000e-01 0.0000000000e+00 0.0000000000e+00
5.0000000000e-01 0.0000000000e+00 0.0000000000e+00
5.1000000000e-01 0.0000000000e+00 0.0000000000e+00
5.2000000000e-01 0.0000000000e+00 0.0000000000e+00
5.3000000000e-01 0.0000000000e+00 0.0000000000e+00
5.4000000000e-01 0.0000000000e+00 0.0000000000e+00
5.5000000000e-01 0.0000000000e+00 0.0000000000e+00
5.6000000000e-01 0.0000000000e+00 0.0000000000e+00
5.7000000000e-01 0.0000000000e+00 0.0000000000e+00
5.8000000000e-01 0.0000000000e+00 0.0000000000e+00
5.9000000000e-01 0.0000000000e+00 0.0000000000e+00
6.0000000000e-01 0.0000000000e+00 0.0000000000e+00
6.1000000000e-01 0.0000000000e+00 0.0000000000e+00
6.2000000000e-01 0.0000000000e+00 0.0000000000e+00
6.3000000000e-01 0.0000000000e+00 0.0000000000e+00
6.4000000000e-01 0.0000000000e+00 0.0000000000e+00
6.5000000000e-01 0.0000000000e+00 0.0000000000e+00
6.6000000000e-01 0.0000000000e+00 0.0000000000e+00
6.7000000000e-01 0.0000000000e+00 0.0000000000e+00
6.8000000000e-01 0.0000000000e+00 0.0000000000e+00
6.9000000000e-01 0.0000000000e+00 0.0000000000e+00
7.0000000000e-01 0.0000000000e+00 0.0000000000e+00
7.1000000000e-01 0.0000000000e+00 0.0000000000e+00
7.2000000000e-01 0.0000000000e+00 0.0000000000e+00
7.3000000000e-01 0.0000000000e+00 0.0000000000e+00
7.4000000000e-01 0.0000000000e+00 0.0000000000e+00
7.5000000000e-01 0.0000000000e+00 0.0000000000e+00
7.6000000000e-01 0.0000000000e+00 0.0000000000e+00
7.7000000000e-01 0.0000000000e+00 0.0000000000e+00
7.8000000000e-01 0.0000000000e+00 0.0000000000e+00
7.9000000000e-01 0.0000000000e+00 0.0000000000e+00
8.0000000000e-01 0.0000000000e+00 0.0000000000e+00
8.1000000000e-01 0.0000000000e+00 0.0000000000e+00
8.2000000000e-01 0.0000000000e+00 0.0000000000e+00
8.3000000000e-01 0.0000000000e+00 0.0000000000e+00
8.4000000000e-01 0.0000000000e+00 0.0000000000e+00
8.5000000000e-01 0.0000000000e+00 0.0000000000e+00
8.6000000000e-01 0.0000000000e+00 0.0000000000e+00
8.7000000000e-01 0.0000000000e+00 0.0000000000e+00
8.8000000000e-01 0.0000000000e+00 0.0000000000e+00
8.9000000000e-01 0.0000000000e+00 0.0000000000e+00
9.0000000000e-01 0.0000000000e+00 0.0000000000e+00
9.1000000000e-01 0.0000000000e+00 0.0000000000e+00
9.2000000000e-01 0.0000000000e+00 0.0000000000e+00
9.3000000000e-01 0.0000000000e+00 0.0000000000e+00
9.4000000000e-01 0.0000000000e+00 0.0000000000e+00
9.5000000000e-01 0.0000000000e+00 0.0000000000e+00
9.6000000000e-01 0.0000000000e+00 0.0000000000e+00
9.7000000000e-01 0.0000000000e+00 0.0000000000e+00
9.8000000000e-01 0.0000000000e+00 0.0000000000e+00
9.9000000000e-01 0.0000000000e+00 0.0000000000e+00
1.0000000000e+00 0.0000000000e+00 0.0000000000e+00
0.0000000000e+00 1.0000000000e-03 0.0000000000e+00
1.0000000000e-02 1.0000000000e-03 0.0000000000e+00
2.0000000000e-02 1.0000000000e-03 0.0000000000e+00
3.0000000000e-02 1.0000000000e-03 0.0000000000e+00
4.0000000000e-02 1.0000000000e-03 0.0000000000e+00
5.0000000000e-02 1.0000000000e-03 0.0000000000e+00
6.0000000000e-02 1.0000000000e-03 0.0000000000e+00
7.0000000000e-02 1.0000000000e-03 0.0000000000e+00
8.0000000000e-02 1.0000000000e-03 0.0000000000e+00
9.0000000000e-02 1.0000000000e-03 0.0000000000e+00
1.0000000000e-01 1.0000000000e-03 0.0000000000e+00
1.1000000000e-01 1.0000000000e-03 0.0000000000e+00
1.2000000000e-01 1.0000000000e-03 0.0000000000e+00
1.3000000000e-01 1.0000000000e-03 0.0000000000e+00
1.4000000000e-01 1.0000000000e-03 0.0000000000e+00
1.5000000000e-01 1.0000000000e-03 0.0000000000e+00
1.6000000000e-01 1.0000000000e-03 0.0000000000e+00
1.7000000000e-01 1.0000000000e-03 0.0000000000e+00
1.8000000000e-01 1.0000000000e-03 0.0000000000e+00
1.9000000000e-01 1.0000000000e-03 0.0000000000e+00
2.0000000000e-01 1.0000000000e-03 0.0000000000e+00
2.1000000000e-01 1.0000000000e-03 0.0000000000e+00
2.2000000000e-01 1.0000000000e-03 0.0000000000e+00
2.3000000000e-01 1.0000000000e-03 0.0000000000e+00
2.4000000000e-01 1.0000000000e-03 0.0000000000e+00
2.5000000000e-01 1.0000000000e-03 0.0000000000e+00
2.6000000000e-01 1.0000000000e-03 0.0000000000e+00
2.7000000000e-01 1.0000000000e-03 0.0000000000e+00
2.8000000000e-01 1.0000000000e-03 0.0000000000e+00
2.9000000000e-01 1.0000000000e-03 0.0000000000e+00
3.0000000000e-01 1.0000000000e-03 0.0000000000e+00
3.1000000000e-01 1.0000000000e-03 0.0000000000e+00
3.2000000000e-01 1.0000000000e-03 0.0000000000e+00
3.3000000000e-01 1.0000000000e-03 0.0000000000e+00
3.4000000000e-01 1.0000000000e-03 0.0000000000e+00
3.5000000000e-01 1.0000000000e-03 0.0000000000e+00
3.6000000000e-01 1.0000000000e-03 0.0000000000e+00
3.7000000000e-01 1.0000000000e-03 0.0000000000e+00
3.8000000000e-01 1.0000000000e-03 0.0000000000e+00
3.9000000000e-01 1.0000000000e-03 0.0000000000e+00
4.0000000000e-01 1.0000000000e-03 0.0000000000e+00
4.1000000000e-01 1.0000000000e-03 0.0000000000e+00
4.2000000000e-01 1.0000000000e-03 0.0000000000e+00
4.3000000000e-01 1.0000000000e-03 0.0000000000e+00
4.4000000000e-01 1.0000000000e-03 0.0000000000e+00
4.5000000000e-01 1.0000000000e-03 0.0000000000e+00
4.6000000000e-01 1.0000000000e-03 0.0000000000e+00
4.7000000000e-01 1.0000000000e-03 0.0000000000e+00
4.8000000000e-01 1.0000000000e-03 0.0000000000e+00
4.9000000000e-01 1.0000000000e-03 0.0000000000e+00
5.0000000000e-01 1.0000000000e-03 0.0000000000e+00
5.1000000000e-01 1.0000000000e-03 0.0000000000e+00
5.2000000000e-01 1.0000000000e-03 0.0000000000e+00
5.3000000000e-01 1.0000000000e-03 0.0000000000e+00
5.4000000000e-01 1.0000000000e-03 0.0000000000e+00
5.5000000000e-01 1.0000000000e-03 0.0000000000e+00
5.6000000000e-01 1.0000000000e-03 0.0000000000e+00
5.7000000000e-01 1.0000000000e-03 0.0000000000e+00
5.8000000000e-01 1.0000000000e-03 0.0000000000e+00
5.9000000000e-01 1.0000000000e-03 0.0000000000e+00
6.0000000000e-01 1.0000000000e-03 0.0000000000e+00
6.1000000000e-01 1.0000000000e-03 0.0000000000e+00
6.2000000000e-01 1.0000000000e-03 0.0000000000e+00
6.3000000000e-01 1.0000000000e-03 0.0000000000e+00
6.4000000000e-01 1.0000000000e-03 0.0000000000e+00
6.5000000000e-01 1.0000000000e-03 0.0000000000e+00
6.6000000000e-01 1.0000000000e-03 0.0000000000e+00
6.7000000000e-01 1.0000000000e-03 0.0000000000e+00
6.8000000000e-01 1.0000000000e-03 0.0000000000e+00
6.9000000000e-01 1.0000000000e-03 0.0000000000e+00
7.0000000000e-01 1.0000000000e-03 0.0000000000e+00
7.1000000000e-01 1.0000000000e-03 0.0000000000e+00
7.2000000000e-01 1.0000000000e-03 0.0000000000e+00
7.3000000000e-01 1.0000000000e-03 0.0000000000e+00
7.4000000000e-01 1.0000000000e-03 0.0000000000e+00
7.5000000000e-01 1.0000000000e-03 0.0000000000e+00
7.6000000000e-01 1.0000000000e-03 0.0000000000e+00
7.7000000000e-01 1.0000000000e-03 0.0000000000e+00
7.8000000000e-01 1.0000000000e-03 0.0000000000e+00
7.9000000000e-01 1.0000000000e-03 0.0000000000e+00
8.0000000000e-01 1.0000000000e-03 0.0000000000e+00
8.1000000000e-01 1.0000000000e-03 0.0000000000e+00
8.2000000000e-01 1.0000000000e-03 0.0000000000e+00
8.3000000000e-01 1.0000000000e-03 0.0000000000e+00
8.4000000000e-01 1.0000000000e-03 0.0000000000e+00
8.5000000000e-01 1.0000000000e-03 0.0000000000e+00
8.6000000000e-01 1.0000000000e-03 0.0000000000e+00
8.7000000000e-01 1.0000000000e-03 0.0000000000e+00
8.8000000000e-01 1.0000000000e-03 0.0000000000e+00
8.9000000000e-01 1.0000000000e-03 0.0000000000e+00
9.0000000000e-01 1.0000000000e-03 0.0000000000e+00
9.1000000000e-01 1.0000000000e-03 0.0000000000e+00
9.2000000000e-01 1.0000000000e-03 0.0000000000e+00
[...]
CELL_DATA 1000

SCALARS massDensity float
LOOKUP_TABLE default
9.9999999996e+02
9.9999999996e+02
9.9999999996e+02
9.9999999996e+02
9.9999999996e+02
9.9999999996e+02
9.9999999995e+02
9.9999999995e+02
9.9999999992e+02
9.9999999984e+02
9.9999999955e+02
9.9999999863e+02
9.9999999577e+02
9.9999998708e+02
9.9999996156e+02
9.9999988897e+02
9.9999968919e+02
9.9999915766e+02
9.9999779179e+02
9.9999440536e+02
9.9998631373e+02
9.9996770240e+02
9.9992654897e+02
9.9983918701e+02
9.9966140401e+02
9.9931510851e+02
9.9867046020e+02
9.9752527637e+02
9.9558646766e+02
9.9246133214e+02
9.8766786606e+02
9.8067064492e+02
9.7094147133e+02
9.5803404378e+02
9.4165427543e+02
9.2170734351e+02
8.9831007363e+02
8.7176903277e+02
8.4253475702e+02
8.1114680838e+02
7.7818265546e+02
7.4421834059e+02
7.0980359326e+02
6.7545030725e+02
6.4163146075e+02
6.0878705871e+02
5.7733366397e+02
5.4767375756e+02
5.2019986778e+02
4.9528580678e+02
4.7325402552e+02
4.5430675211e+02
4.3841535162e+02
4.2518686104e+02
4.1381883268e+02
4.0313395542e+02
3.9189030365e+02
3.7917801963e+02
3.6472068508e+02
3.4893390029e+02
3.3273195901e+02
3.1721246841e+02
3.0337758849e+02
2.9197046386e+02
2.8335384316e+02
2.7718772106e+02
2.7170366515e+02
2.6312537805e+02
2.4687773810e+02
2.2119723284e+02
1.9029267353e+02
1.6227195658e+02
1.4295183849e+02
1.3252355261e+02
1.2786987417e+02
1.2603515222e+02
1.2536102749e+02
1.2512296484e+02
1.2504103725e+02
1.2501342611e+02
1.2500430392e+02
1.2500135072e+02
1.2500041468e+02
1.2500012445e+02
1.2500003649e+02
1.2500001045e+02
1.2500000293e+02
1.2500000080e+02
1.2500000022e+02
1.2500000006e+02
1.2500000002e+02
1.2500000001e+02
1.2500000001e+02
1.2500000000e+02
1.2500000000e+02
1.2500000000e+02
1.2500000000e+02
1.2500000000e+02
1.2500000000e+02
1.2500000000e+02
9.9999999996e+02
9.9999999996e+02
9.9999999996e+02
9.9999999996e+02
9.9999999996e+02
9.9999999996e+02
9.9999999995e+02
9.9999999995e+02
9.9999999992e+02
9.9999999984e+02
9.9999999955e+02
9.9999999863e+02
9.9999999577e+02
9.9999998708e+02
9.9999996156e+02
9.9999988897e+02
9.9999968919e+02
9.9999915766e+02
9.9999779179e+02
9.9999440536e+02
9.9998631373e+02
9.9996770240e+02
9.9992654897e+02
9.9983918701e+02
9.9966140401e+02
9.9931510851e+02
9.9867046020e+02
9.9752527637e+02
9.9558646766e+02
9.9246133214e+02
9.8766786606e+02
9.8067064492e+02
9.7094147133e+02
9.5803404378e+02
9.4165427543e+02
9.2170734351e+02
8.9831007363e+02
8.7176903277e+02
8.4253475702e+02
8.1114680838e+02
7.7818265546e+02
7.4421834059e+02
7.0980359326e+02
6.7545030725e+02
6.4163146075e+02
6.0878705871e+02
5.7733366397e+02
5.4767375756e+02
5.2019986778e+02
4.9528580678e+02
4.7325402552e+02
4.5430675211e+02
4.3841535162e+02
4.2518686104e+02
4.1381883268e+02
4.0313395542e+02
3.9189030365e+02
3.7917801963e+02
3.6472068508e+02
3.4893390029e+02
3.3273195901e+02
3.1721246841e+02
3.0337758849e+02
2.9197046386e+02
2.8335384316e+02
2.7718772106e+02
2.7170366515e+02
2.6312537805e+02
2.4687773810e+02
2.2119723284e+02
1.9029267353e+02
1.6227195658e+02
1.4295183849e+02
1.3252355261e+02
1.2786987417e+02
1.2603515222e+02
1.2536102749e+02
1.2512296484e+02
1.2504103725e+02
1.2501342611e+02
1.2500430392e+02
1.2500135072e+02
1.2500041468e+02
1.2500012445e+02
1.2500003649e+02
1.2500001045e+02
1.2500000293e+02
1.2500000080e+02
1.2500000022e+02
1.2500000006e+02
1.2500000002e+02
1.2500000001e+02
1.2500000001e+02
1.2500000000e+02
1.2500000000e+02
1.2500000000e+02
1.2500000000e+02
1.2500000000e+02
1.2500000000e+02
1.2500000000e+02
9.9999999996e+02
9.9999999996e+02
9.9999999996e+02
9.9999999996e+02
9.9999999996e+02
9.9999999996e+02
9.9999999995e+02
9.9999999995e+02
9.9999999992e+02
9.9999999984e+02
9.9999999955e+02
9.9999999863e+02
9.9999999577e+02
9.9999998708e+02
9.9999996156e+02
9.9999988897e+02
9.9999968919e+02
9.9999915766e+02
9.9999779179e+02
9.9999440536e+02
9.9998631373e+02
9.9996770240e+02
9.9992654897e+02
9.9983918701e+02
9.9966140401e+02
9.9931510851e+02
9.9867046020e+02
9.9752527637e+02
9.9558646766e+02
9.9246133214e+02
9.8766786606e+02
9.8067064492e+02
9.7094147133e+02
9.5803404378e+02
9.4165427543e+02
9.2170734351e+02
8.9831007363e+02
8.7176903277e+02
8.4253475702e+02
8.1114680838e+02
7.7818265546e+02
7.4421834059e+02
7.0980359326e+02
6.7545030725e+02
6.4163146075e+02
6.0878705871e+02
5.7733366397e+02
5.4767375756e+02
5.2019986778e+02
4.9528580678e+02
4.7325402552e+02
4.5430675211e+02
4.3841535162e+02
4.2518686104e+02
4.1381883268e+02
4.0313395542e+02
3.9189030365e+02
3.7917801963e+02
3.6472068508e+02
3.4893390029e+02
3.3273195901e+02
3.1721246841e+02
3.0337758849e+02
2.9197046386e+02
2.8335384316e+02
2.7718772106e+02
2.7170366515e+02
2.6312537805e+02
2.4687773810e+02
2.2119723284e+02
1.9029267353e+02
1.6227195658e+02
1.4295183849e+02
1.3252355261e+02
1.2786987417e+02
1.2603515222e+02
1.2536102749e+02
1.2512296484e+02
1.2504103725e+02
1.2501342611e+02
1.2500430392e+02
1.2500135072e+02
1.2500041468e+02
1.2500012445e+02
1.2500003649e+02
1.2500001045e+02
1.2500000293e+02
1.2500000080e+02
1.2500000022e+02
1.2500000006e+02
1.2500000002e+02
1.2500000001e+02
1.2500000001e+02
1.2500000000e+02
1.2500000000e+02
1.2500000000e+02
1.2500000000e+02
1.2500000000e+02
1.2500000000e+02
1.2500000000e+02
9.9999999996e+02
9.9999999996e+02
9.9999999996e+02
9.9999999996e+02
9.9999999996e+02
9.9999999996e+02
9.9999999995e+02
9.9999999995e+02
9.9999999992e+02
9.9999999984e+02
9.9999999955e+02
9.9999999863e+02
9.9999999577e+02
9.9999998708e+02
9.9999996156e+02
9.9999988897e+02
9.9999968919e+02
9.9999915766e+02
9.9999779179e+02
9.9999440536e+02
9.9998631373e+02
9.9996770240e+02
9.9992654897e+02
9.9983918701e+02
9.9966140401e+02
9.9931510851e+02
9.9867046020e+02
9.9752527637e+02
9.9558646766e+02
9.9246133214e+02
9.8766786606e+02
9.8067064492e+02
9.7094147133e+02
9.5803404378e+02
9.4165427543e+02
9.2170734351e+02
8.9831007363e+02
8.7176903277e+02
8.4253475702e+02
8.1114680838e+02
7.7818265546e+02
7.4421834059e+02
7.0980359326e+02
6.7545030725e+02
6.4163146075e+02
6.0878705871e+02
5.7733366397e+02
5.4767375756e+02
5.2019986778e+02
4.9528580678e+02
4.7325402552e+02
4.5430675211e+02
4.3841535162e+02
4.2518686104e+02
4.1381883268e+02
4.0313395542e+02
3.9189030365e+02
3.7917801963e+02
3.6472068508e+02
3.4893390029e+02
3.3273195901e+02
3.1721246841e+02
3.0337758849e+02
2.9197046386e+02
2.8335384316e+02
2.7718772106e+02
2.7170366515e+02
2.6312537805e+02
2.4687773810e+02
2.2119723284e+02
1.9029267353e+02
1.6227195658e+02
1.4295183849e+02
1.3252355261e+02
1.2786987417e+02
1.2603515222e+02
1.2536102749e+02
1.2512296484e+02
1.2504103725e+02
1.2501342611e+02
1.2500430392e+02
1.2500135072e+02
1.2500041468e+02
1.2500012445e+02
1.2500003649e+02
1.2500001045e+02
1.2500000293e+02
1.2500000080e+02
1.2500000022e+02
1.2500000006e+02
1.2500000002e+02
1.2500000001e+02
1.2500000001e+02
1.2500000000e+02
1.2500000000e+02
1.2500000000e+02
1.2500000000e+02
1.2500000000e+02
1.2500000000e+02
1.2500000000e+02
9.9999999996e+02
9.9999999996e+02
9.9999999996e+02
9.9999999996e+02
9.9999999996e+02
9.9999999996e+02
9.9999999995e+02
9.9999999995e+02
9.9999999992e+02
9.9999999984e+02
9.9999999955e+02
9.9999999863e+02
9.9999999577e+02
9.9999998708e+02
9.9999996156e+02
9.9999988897e+02
9.9999968919e+02
9.9999915766e+02
9.9999779179e+02
9.9999440536e+02
9.9998631373e+02
9.9996770240e+02
9.9992654897e+02
9.9983918701e+02
9.9966140401e+02
9.9931510851e+02
9.9867046020e+02
9.9752527637e+02
9.9558646766e+02
9.9246133214e+02
9.8766786606e+02
9.8067064492e+02
9.7094147133e+02
9.5803404378e+02
9.4165427543e+02
9.2170734351e+02
8.9831007363e+02
8.7176903277e+02
8.4253475702e+02
8.1114680838e+02
7.7818265546e+02
7.4421834059e+02
7.0980359326e+02
6.7545030725e+02
6.4163146075e+02
6.0878705871e+02
5.7733366397e+02
5.4767375756e+02
5.2019986778e+02
4.9528580678e+02
4.7325402552e+02
4.5430675211e+02
4.3841535162e+02
4.2518686104e+02
4.1381883268e+02
4.0313395542e+02
3.9189030365e+02
3.7917801963e+02
3.6472068508e+02
3.4893390029e+02
3.3273195901e+02
3.1721246841e+02
3.0337758849e+02
2.9197046386e+02
2.8335384316e+02
2.7718772106e+02
2.7170366515e+02
2.6312537805e+02
2.4687773810e+02
2.2119723284e+02
1.9029267353e+02
1.6227195658e+02
1.4295183849e+02
1.3252355261e+02
1.2786987417e+02
1.2603515222e+02
1.2536102749e+02
1.2512296484e+02
1.2504103725e+02
1.2501342611e+02
1.2500430392e+02
1.2500135072e+02
1.2500041468e+02
1.2500012445e+02
1.2500003649e+02
1.2500001045e+02
1.2500000293e+02
1.2500000080e+02
1.2500000022e+02
1.2500000006e+02
1.2500000002e+02
1.2500000001e+02
1.2500000001e+02
1.2500000000e+02
1.2500000000e+02
1.2500000000e+02
1.2500000000e+02
1.2500000000e+02
1.2500000000e+02
1.2500000000e+02
9.9999999996e+02
9.9999999996e+02
9.9999999996e+02
9.9999999996e+02
9.9999999996e+02
9.9999999996e+02
9.9999999995e+02
9.9999999995e+02
9.9999999992e+02
9.9999999984e+02
9.9999999955e+02
9.9999999863e+02
9.9999999577e+02
9.9999998708e+02
9.9999996156e+02
9.9999988897e+02
9.9999968919e+02
9.9999915766e+02
9.9999779179e+02
9.9999440536e+02
9.9998631373e+02
9.9996770240e+02
9.9992654897e+02
9.9983918701e+02
9.9966140401e+02
9.9931510851e+02
9.9867046020e+02
9.9752527637e+02
9.9558646766e+02
9.9246133214e+02
9.8766786606e+02
9.8067064492e+02
9.7094147133e+02
9.5803404378e+02
9.4165427543e+02
9.2170734351e+02
8.9831007363e+02
8.7176903277e+02
8.4253475702e+02
8.1114680838e+02
7.7818265546e+02
7.4421834059e+02
7.0980359326e+02
6.7545030725e+02
6.4163146075e+02
6.0878705871e+02
5.7733366397e+02
5.4767375756e+02
5.2019986778e+02
4.9528580678e+02
4.7325402552e+02
4.5430675211e+02
4.3841535162e+02
4.2518686104e+02
4.1381883268e+02
4.0313395542e+02
3.9189030365e+02
3.7917801963e+02
3.6472068508e+02
3.4893390029e+02
3.3273195901e+02
3.1721246841e+02
3.0337758849e+02
2.9197046386e+02
2.8335384316e+02
2.7718772106e+02
2.7170366515e+02
2.6312537805e+02
2.4687773810e+02
2.2119723284e+02
1.9029267353e+02
1.6227195658e+02
1.4295183849e+02
1.3252355261e+02
1.2786987417e+02
1.2603515222e+02
1.2536102749e+02
1.2512296484e+02
1.2504103725e+02
1.2501342611e+02
1.2500430392e+02
1.2500135072e+02
1.2500041468e+02
1.2500012445e+02
1.2500003649e+02
1.2500001045e+02
1.2500000293e+02
1.2500000080e+02
1.2500000022e+02
1.2500000006e+02
1.2500000002e+02
1.2500000001e+02
1.2500000001e+02
1.2500000000e+02
1.2500000000e+02
1.2500000000e+02
1.2500000000e+02
1.2500000000e+02
1.2500000000e+02
1.2500000000e+02
9.9999999996e+02
9.9999999996e+02
9.9999999996e+02
9.9999999996e+02
9.9999999996e+02
9.9999999996e+02
9.9999999995e+02
9.9999999995e+02
9.9999999992e+02
9.9999999984e+02
9.9999999955e+02
9.9999999863e+02
9.9999999577e+02
9.9999998708e+02
9.9999996156e+02
9.9999988897e+02
9.9999968919e+02
9.9999915766e+02
9.9999779179e+02
9.9999440536e+02
9.9998631373e+02
9.9996770240e+02
9.9992654897e+02
9.9983918701e+02
9.9966140401e+02
9.9931510851e+02
9.9867046020e+02
9.9752527637e+02
9.9558646766e+02
9.9246133214e+02
9.8766786606e+02
9.8067064492e+02
9.7094147133e+02
9.5803404378e+02
9.4165427543e+02
9.2170734351e+02
8.9831007363e+02
8.7176903277e+02
8.4253475702e+02
8.1114680838e+02
7.7818265546e+02
7.4421834059e+02
7.0980359326e+02
6.7545030725e+02
6.4163146075e+02
6.0878705871e+02
5.7733366397e+02
5.4767375756e+02
5.2019986778e+02
4.9528580678e+02
4.7325402552e+02
4.5430675211e+02
4.3841535162e+02
4.2518686104e+02
4.1381883268e+02
4.0313395542e+02
3.9189030365e+02
3.7917801963e+02
3.6472068508e+02
3.4893390029e+02
3.3273195901e+02
3.1721246841e+02
3.0337758849e+02
2.9197046386e+02
2.8335384316e+02
2.7718772106e+02
2.7170366515e+02
2.6312537805e+02
2.4687773810e+02
2.2119723284e+02
1.9029267353e+02
1.6227195658e+02
1.4295183849e+02
1.3252355261e+02
1.2786987417e+02
1.2603515222e+02
1.2536102749e+02
1.2512296484e+02
1.2504103725e+02
1.2501342611e+02
1.2500430392e+02
1.2500135072e+02
1.2500041468e+02
1.2500012445e+02
1.2500003649e+02
1.2500001045e+02
1.2500000293e+02
1.2500000080e+02
1.2500000022e+02
1.2500000006e+02
1.2500000002e+02
1.2500000001e+02
1.2500000001e+02
1.2500000000e+02
1.2500000000e+02
1.2500000000e+02
1.2500000000e+02
1.2500000000e+02
1.2500000000e+02
1.2500000000e+02
9.9999999996e+02
9.9999999996e+02
9.9999999996e+02
9.9999999996e+02
9.9999999996e+02
9.9999999996e+02
9.9999999995e+02
9.9999999995e+02
9.9999999992e+02
9.9999999984e+02
9.9999999955e+02
9.9999999863e+02
9.9999999577e+02
9.9999998708e+02
9.9999996156e+02
9.9999988897e+02
9.9999968919e+02
9.9999915766e+02
9.9999779179e+02
9.9999440536e+02
9.9998631373e+02
9.9996770240e+02
9.9992654897e+02
9.9983918701e+02
9.9966140401e+02
9.9931510851e+02
9.9867046020e+02
9.9752527637e+02
9.9558646766e+02
9.9246133214e+02
9.8766786606e+02
9.8067064492e+02
9.7094147133e+02
9.5803404378e+02
9.4165427543e+02
9.2170734351e+02
8.9831007363e+02
8.7176903277e+02
8.4253475702e+02
8.1114680838e+02
7.7818265546e+02
7.4421834059e+02
7.0980359326e+02
6.7545030725e+02
6.4163146075e+02
6.0878705871e+02
5.7733366397e+02
5.4767375756e+02
5.2019986778e+02
4.9528580678e+02
4.7325402552e+02
4.5430675211e+02
4.3841535162e+02
4.2518686104e+02
4.1381883268e+02
4.0313395542e+02
3.9189030365e+02
3.7917801963e+02
3.6472068508e+02
3.4893390029e+02
3.3273195901e+02
3.1721246841e+02
3.0337758849e+02
2.9197046386e+02
2.8335384316e+02
2.7718772106e+02
2.7170366515e+02
2.6312537805e+02
2.4687773810e+02
2.2119723284e+02
1.9029267353e+02
1.6227195658e+02
1.4295183849e+02
1.3252355261e+02
1.2786987417e+02
1.2603515222e+02
1.2536102749e+02
1.2512296484e+02
1.2504103725e+02
1.2501342611e+02
1.2500430392e+02
1.2500135072e+02
1.2500041468e+02
1.2500012445e+02
1.2500003649e+02
1.2500001045e+02
1.2500000293e+02
1.2500000080e+02
1.2500000022e+02
1.2500000006e+02
1.2500000002e+02
1.2500000001e+02
1.2500000001e+02
1.2500000000e+02
1.2500000000e+02
1.2500000000e+02
1.2500000000e+02
1.2500000000e+02
1.2500000000e+02
1.2500000000e+02
9.9999999996e+02
9.9999999996e+02
9.9999999996e+02
9.9999999996e+02
9.9999999996e+02
9.9999999996e+02
9.9999999995e+02
9.9999999995e+02
9.9999999992e+02
9.9999999984e+02
9.9999999955e+02
9.9999999863e+02
9.9999999577e+02
9.9999998708e+02
9.9999996156e+02
9.9999988897e+02
9.9999968919e+02
9.9999915766e+02
9.9999779179e+02
9.9999440536e+02
9.9998631373e+02
9.9996770240e+02
9.9992654897e+02
9.9983918701e+02
9.9966140401e+02
9.9931510851e+02
9.9867046020e+02
9.9752527637e+02
9.9558646766e+02
9.9246133214e+02
9.8766786606e+02
9.8067064492e+02
9.7094147133e+02
9.5803404378e+02
9.4165427543e+02
9.2170734351e+02
8.9831007363e+02
8.7176903277e+02
8.4253475702e+02
8.1114680838e+02
7.7818265546e+02
7.4421834059e+02
7.0980359326e+02
6.7545030725e+02
6.4163146075e+02
6.0878705871e+02
5.7733366397e+02
5.4767375756e+02
5.2019986778e+02
4.9528580678e+02
4.7325402552e+02
4.5430675211e+02
4.3841535162e+02
4.2518686104e+02
4.1381883268e+02
4.0313395542e+02
3.9189030365e+02
3.7917801963e+02
3.6472068508e+02
3.4893390029e+02
3.3273195901e+02
3.1721246841e+02
3.0337758849e+02
2.9197046386e+02
2.8335384316e+02
2.7718772106e+02
2.7170366515e+02
2.6312537805e+02
2.4687773810e+02
2.2119723284e+02
1.9029267353e+02
1.6227195658e+02
1.4295183849e+02
1.3252355261e+02
1.2786987417e+02
1.2603515222e+02
1.2536102749e+02
1.2512296484e+02
1.2504103725e+02
1.2501342611e+02
1.2500430392e+02
1.2500135072e+02
1.2500041468e+02
1.2500012445e+02
1.2500003649e+02
1.2500001045e+02
1.2500000293e+02
1.2500000080e+02
1.2500000022e+02
1.2500000006e+02
1.2500000002e+02
1.2500000001e+02
1.2500000001e+02
1.2500000000e+02
1.2500000000e+02
1.2500000000e+02
1.2500000000e+02
1.2500000000e+02
1.2500000000e+02
1.2500000000e+02
9.9999999996e+02
9.9999999996e+02
9.9999999996e+02
9.9999999996e+02
9.9999999996e+02
9.9999999996e+02
9.9999999995e+02
9.9999999995e+02
9.9999999992e+02
9.9999999984e+02
9.9999999955e+02
9.9999999863e+02
9.9999999577e+02
9.9999998708e+02
9.9999996156e+02
9.9999988897e+02
9.9999968919e+02
9.9999915766e+02
9.9999779179e+02
9.9999440536e+02
9.9998631373e+02
9.9996770240e+02
9.9992654897e+02
9.9983918701e+02
9.9966140401e+02
9.9931510851e+02
9.9867046020e+02
9.9752527637e+02
9.9558646766e+02
9.9246133214e+02
9.8766786606e+02
9.8067064492e+02
9.7094147133e+02
9.5803404378e+02
9.4165427543e+02
9.2170734351e+02
8.9831007363e+02
8.7176903277e+02
8.4253475702e+02
8.1114680838e+02
7.7818265546e+02
7.4421834059e+02
7.0980359326e+02
6.7545030725e+02
6.4163146075e+02
6.0878705871e+02
5.7733366397e+02
5.4767375756e+02
5.2019986778e+02
4.9528580678e+02
4.7325402552e+02
4.5430675211e+02
4.3841535162e+02
4.2518686104e+02
4.1381883268e+02
4.0313395542e+02
3.9189030365e+02
3.7917801963e+02
3.6472068508e+02
3.4893390029e+02
3.3273195901e+02
3.1721246841e+02
3.0337758849e+02
2.9197046386e+02
2.8335384316e+02
2.7718772106e+02
2.7170366515e+02
2.6312537805e+02
2.4687773810e+02
2.2119723284e+02
1.9029267353e+02
1.6227195658e+02
1.4295183849e+02
1.3252355261e+02
1.2786987417e+02
1.2603515222e+02
1.2536102749e+02
1.2512296484e+02
1.2504103725e+02
1.2501342611e+02
1.2500430392e+02
1.2500135072e+02
1.2500041468e+02
1.2500012445e+02
1.2500003649e+02
1.2500001045e+02
1.2500000293e+02
1.2500000080e+02
1.2500000022e+02
1.2500000006e+02
1.2500000002e+02
1.2500000001e+02
1.2500000001e+02
1.2500000000e+02
1.2500000000e+02
1.2500000000e+02
1.2500000000e+02
1.2500000000e+02
1.2500000000e+02
1.2500000000e+02

SCALARS molarDensity float
LOOKUP_TABLE default
1.2977624132e+05
1.2977624132e+05
1.2977624132e+05
1.2977624132e+05
1.2977624132e+05
1.2977624132e+05
1.2977624132e+05
1.2977624132e+05
1.2977624132e+05
1.2977624131e+05
1.2977624127e+05
1.2977624115e+05
1.2977624078e+05
1.2977623965e+05
1.2977623634e+05
1.2977622692e+05
1.2977620099e+05
1.2977613201e+05
1.2977595475e+05
1.2977551528e+05
1.2977446517e+05
1.2977204987e+05
1.2976670913e+05
1.2975537162e+05
1.2973229961e+05
1.2968735868e+05
1.2960369865e+05
1.2945508100e+05
1.2920346969e+05
1.2879790135e+05
1.2817582334e+05
1.2726775028e+05
1.2600513470e+05
1.2433005727e+05
1.2220435249e+05
1.1961571464e+05
1.1657930490e+05
1.1313490838e+05
1.0934099395e+05
1.0526758396e+05
1.0098962009e+05
9.6581858968e+04
9.2115642413e+04
8.7657402079e+04
8.3268519293e+04
7.9006096247e+04
7.4924192901e+04
7.1075041729e+04
6.7509583579e+04
6.4276330386e+04
6.1417128624e+04
5.8958222699e+04
5.6895896473e+04
5.5179152687e+04
5.3703852695e+04
5.2317209486e+04
5.0858050621e+04
4.9208298181e+04
4.7332079643e+04
4.5283330051e+04
4.3180703009e+04
4.1166641853e+04
3.9371203137e+04
3.7890829379e+04
3.6772596731e+04
3.5972380581e+04
3.5260680418e+04
3.4147422561e+04
3.2038864918e+04
2.8706145469e+04
2.4695467922e+04
2.1059044597e+04
1.8551752289e+04
1.7198408545e+04
1.6594471649e+04
1.6356368330e+04
1.6268882956e+04
1.6237988080e+04
1.6227355825e+04
1.6223772556e+04
1.6222588712e+04
1.6222205457e+04
1.6222083981e+04
1.6222046317e+04
1.6222034902e+04
1.6222031522e+04
1.6222030546e+04
1.6222030270e+04
1.6222030194e+04
1.6222030174e+04
1.6222030168e+04
1.6222030167e+04
1.6222030167e+04
1.6222030167e+04
1.6222030166e+04
1.6222030166e+04
1.6222030166e+04
1.6222030166e+04
1.6222030166e+04
1.6222030166e+04
1.2977624132e+05
1.2977624132e+05
1.2977624132e+05
1.2977624132e+05
1.2977624132e+05
1.2977624132e+05
1.2977624132e+05
1.2977624132e+05
1.2977624132e+05
1.2977624131e+05
1.2977624127e+05
1.2977624115e+05
1.2977624078e+05
1.2977623965e+05
1.2977623634e+05
1.2977622692e+05
1.2977620099e+05
1.2977613201e+05
1.2977595475e+05
1.2977551528e+05
1.2977446517e+05
1.2977204987e+05
1.2976670913e+05
1.2975537162e+05
1.2973229961e+05
1.2968735868e+05
1.2960369865e+05
1.2945508100e+05
1.2920346969e+05
1.2879790135e+05
1.2817582334e+05
1.2726775028e+05
1.2600513470e+05
1.2433005727e+05
1.2220435249e+05
1.1961571464e+05
1.1657930490e+05
1.1313490838e+05
1.0934099395e+05
1.0526758396e+05
1.0098962009e+05
9.6581858968e+04
9.2115642413e+04
8.7657402079e+04
8.3268519293e+04
7.9006096247e+04
7.4924192901e+04
7.1075041729e+04
6.7509583579e+04
6.4276330386e+04
6.1417128624e+04
5.8958222699e+04
5.6895896473e+04
5.5179152687e+04
5.3703852695e+04
5.2317209486e+04
5.0858050621e+04
4.9208298181e+04
4.7332079643e+04
4.5283330051e+04
4.3180703009e+04
4.1166641853e+04
3.9371203137e+04
3.7890829379e+04
3.6772596731e+04
3.5972380581e+04
3.5260680418e+04
3.4147422561e+04
3.2038864918e+04