# vtk DataFile Version 2.0
Blank
ASCII
DATASET STRUCTURED_GRID
DIMENSIONS 101 11 2
POINTS 2222 float
0.0000000000e+00 0.0000000000e+00 0.0000000000e+00
1.0000000000e-02 0.0000000000e+00 0.0000000000e+00
2.0000000000e-02 0.0000000000e+00 0.0000000000e+00
3.0000000000e-02 0.0000000000e+00 0.0000000000e+00
4.0000000000e-02 0.0000000000e+00 0.0000000000e+00
5.0000000000e-02 0.0000000000e+00 0.0000000000e+00
6.0000000000e-02 0.0000000000e+00 0.0000000000e+00
7.0000000000e-02 0.0000000000e+00 0.0000000000e+00
8.0000000000e-02 0.0000000000e+00 0.0000000000e+00
9.0000000000e-02 0.0000000000e+00 0.0000000000e+00
1.0000000000e-01 0.0000000000e+00 0.0000000000e+00
1.1000000000e-01 0.0000000000e+00 0.0000000000e+00
1.2000000000e-01 0.0000000000e+00 0.0000000000e+00
1.3000000000e-01 0.0000000000e+00 0.0000000000e+00
1.4000000000e-01 0.0000000000e+00 0.0000000000e+00
1.5000000000e-01 0.0000000000e+00 0.0000000000e+00
1.6000000000e-01 0.0000000000e+00 0.0000000000e+00
1.7000000000e-01 0.0000000000e+00 0.0000000000e+00
1.8000000000e-01 0.0000000000e+00 0.0000000000e+00
1.9000000000e-01 0.0000000000e+00 0.0000000000e+00
2.0000000000e-01 0.0000000000e+00 0.0000000000e+00
2.1000000000e-01 0.0000000000e+00 0.0000000000e+00
2.2000000000e-01 0.0000000000e+00 0.0000000000e+00
2.3000000000e-01 0.0000000000e+00 0.0000000000e+00
2.4000000000e-01 0.0000000000e+00 0.0000000000e+00
2.5000000000e-01 0.0000000000e+00 0.0000000000e+00
2.6000000000e-01 0.0000000000e+00 0.0000000000e+00
2.7000000000e-01 0.0000000000e+00 0.0000000000e+00
2.8000000000e-01 0.0000000000e+00 0.0000000000e+00
2.9000000000e-01 0.0000000000e+00 0.0000000000e+00
3.0000000000e-01 0.0000000000e+00 0.0000000000e+00
3.1000000000e-01 0.0000000000e+00 0.0000000000e+00
3.2000000000e-01 0.0000000000e+00 0.0000000000e+00
3.3000000000e-01 0.0000000000e+00 0.0000000000e+00
3.4000000000e-01 0.0000000000e+00 0.0000000000e+00
3.5000000000e-01 0.0000000000e+00 0.0000000000e+00
3.6000000000e-01 0.0000000000e+00 0.0000000000e+00
3.7000000000e-01 0.0000000000e+00 0.0000000000e+00
3.8000000000e-01 0.0000000000e+00 0.0000000000e+00
3.9000000000e-01 0.0000000000e+00 0.0000000000e+00
4.0000000000e-01 0.0000000000e+00 0.0000000000e+00
4.1000000000e-01 0.0000000000e+00 0.0000000000e+00
4.2000000000e-01 0.0000000000e+00 0.0000000000e+00
4.3000000000e-01 0.0000000000e+00 0.0000000000e+00
4.4000000000e-01 0.0000000000e+00 0.0000000000e+00
4.5000000000e-01 0.0000000000e+00 0.0000000000e+00
4.6000000000e-01 0.0000000000e+00 0.0000000000e+00
4.7000000000e-01 0.0000000000e+00 0.0000000000e+00
4.8000000000e-01 0.0000000000e+00 0.0000000000e+00
4.9000000000e-01 0.0000000000e+00 0.0000000000e+00
5.0000000000e-01 0.0000000000e+00 0.0000000000e+00
5.1000000000e-01 0.0000000000e+00 0.0000000000e+00
5.2000000000e-01 0.0000000000e+00 0.0000000000e+00
5.3000000000e-01 0.0000000000e+00 0.0000000000e+00
5.4000000000e-01 0.0000000000e+00 0.0000000000e+00
5.5000000000e-01 0.0000000000e+00 0.0000000000e+00
5.6000000000e-01 0.0000000000e+00 0.0000000000e+00
5.7000000000e-01 0.0000000000e+00 0.0000000000e+00
5.8000000000e-01 0.0000000000e+00 0.0000000000e+00
5.9000000000e-01 0.0000000000e+00 0.0000000000e+00
6.0000000000e-01 0.0000000000e+00 0.0000000000e+00
6.1000000000e-01 0.0000000000e+00 0.0000000000e+00
6.2000000000e-01 0.0000000000e+00 0.0000000000e+00
6.3000000000e-01 0.0000000000e+00 0.0000000000e+00
6.4000000000e-01 0.0000000000e+00 0.0000000000e+00
6.5000000000e-01 0.0000000000e+00 0.0000000000e+00
6.6000000000e-01 0.0000000000e+00 0.0000000000e+00
6.7000000000e-01 0.0000000000e+00 0.0000000000e+00
6.8000000000e-01 0.0000000000e+00 0.0000000000e+00
6.9000000000e-01 0.0000000000e+00 0.0000000000e+00
7.0000000000e-01 0.0000000000e+00 0.0000000000e+00
7.1000000000e-01 0.0000000000e+00 0.0000000000e+00
7.2000000000e-01 0.0000000000e+00 0.0000000000e+00
7.3000000000e-01 0.0000000000e+00 0.0000000000e+00
7.4000000000e-01 0.0000000000e+00 0.0000000000e+00
7.5000000000e-01 0.0000000000e+00 0.0000000000e+00
7.6000000000e-01 0.0000000000e+00 0.0000000000e+00
7.7000000000e-01 0.0000000000e+00 0.0000000000e+00
7.8000000000e-01 0.0000000000e+00 0.0000000000e+00
7.9000000000e-01 0.0000000000e+00 0.0000000000e+00
8.0000000000e-01 0.0000000000e+00 0.0000000000e+00
8.1000000000e-01 0.0000000000e+00 0.0000000000e+00
8.2000000000e-01 0.0000000000e+00 0.0000000000e+00
8.3000000000e-01 0.0000000000e+00 0.0000000000e+00
8.4000000000e-01 0.0000000000e+00 0.0000000000e+00
8.5000000000e-01 0.0000000000e+00 0.0000000000e+00
8.6000000000e-01 0.0000000000e+00 0.0000000000e+00
8.7000000000e-01 0.0000000000e+00 0.0000000000e+00
8.8000000000e-01 0.0000000000e+00 0.0000000000e+00
8.9000000000e-01 0.0000000000e+00 0.0000000000e+00
9.0000000000e-01 0.0000000000e+00 0.0000000000e+00
9.1000000000e-01 0.0000000000e+00 0.0000000000e+00
9.2000000000e-01 0.0000000000e+00 0.0000000000e+00
9.3000000000e-01 0.0000000000e+00 0.0000000000e+00
9.4000000000e-01 0.0000000000e+00 0.0000000000e+00
9.5000000000e-01 0.0000000000e+00 0.0000000000e+00
9.6000000000e-01 0.0000000000e+00 0.0000000000e+00
9.7000000000e-01 0.0000000000e+00 0.0000000000e+00
9.8000000000e-01 0.0000000000e+00 0.0000000000e+00
9.9000000000e-01 0.0000000000e+00 0.0000000000e+00
1.0000000000e+00 0.0000000000e+00 0.0000000000e+00
0.0000000000e+00 1.0000000000e-03 0.0000000000e+00
1.0000000000e-02 1.0000000000e-03 0.0000000000e+00
2.0000000000e-02 1.0000000000e-03 0.0000000000e+00
3.0000000000e-02 1.0000000000e-03 0.0000000000e+00
4.0000000000e-02 1.0000000000e-03 0.0000000000e+00
5.0000000000e-02 1.0000000000e-03 0.0000000000e+00
6.0000000000e-02 1.0000000000e-03 0.0000000000e+00
7.0000000000e-02 1.0000000000e-03 0.0000000000e+00
8.0000000000e-02 1.0000000000e-03 0.0000000000e+00
9.0000000000e-02 1.0000000000e-03 0.0000000000e+00
1.0000000000e-01 1.0000000000e-03 0.0000000000e+00
1.1000000000e-01 1.0000000000e-03 0.0000000000e+00
1.2000000000e-01 1.0000000000e-03 0.0000000000e+00
1.3000000000e-01 1.0000000000e-03 0.0000000000e+00
1.4000000000e-01 1.0000000000e-03 0.0000000000e+00
1.5000000000e-01 1.0000000000e-03 0.0000000000e+00
1.6000000000e-01 1.0000000000e-03 0.0000000000e+00
1.7000000000e-01 1.0000000000e-03 0.0000000000e+00
1.8000000000e-01 1.0000000000e-03 0.0000000000e+00
1.9000000000e-01 1.0000000000e-03 0.0000000000e+00
2.0000000000e-01 1.0000000000e-03 0.0000000000e+00
2.1000000000e-01 1.0000000000e-03 0.0000000000e+00
2.2000000000e-01 1.0000000000e-03 0.0000000000e+00
2.3000000000e-01 1.0000000000e-03 0.0000000000e+00
2.4000000000e-01 1.0000000000e-03 0.0000000000e+00
2.5000000000e-01 1.0000000000e-03 0.0000000000e+00
2.6000000000e-01 1.0000000000e-03 0.0000000000e+00
2.7000000000e-01 1.0000000000e-03 0.0000000000e+00
2.8000000000e-01 1.0000000000e-03 0.0000000000e+00
2.9000000000e-01 1.0000000000e-03 0.0000000000e+00
3.0000000000e-01 1.0000000000e-03 0.0000000000e+00
3.1000000000e-01 1.0000000000e-03 0.0000000000e+00
3.2000000000e-01 1.0000000000e-03 0.0000000000e+00
3.3000000000e-01 1.0000000000e-03 0.0000000000e+00
3.4000000000e-01 1.0000000000e-03 0.0000000000e+00
3.5000000000e-01 1.0000000000e-03 0.0000000000e+00
3.6000000000e-01 1.0000000000e-03 0.0000000000e+00
3.7000000000e-01 1.0000000000e-03 0.0000000000e+00
3.8000000000e-01 1.0000000000e-03 0.0000000000e+00
3.9000000000e-01 1.0000000000e-03 0.0000000000e+00
4.0000000000e-01 1.0000000000e-03 0.0000000000e+00
4.1000000000e-01 1.0000000000e-03 0.0000000000e+00
4.2000000000e-01 1.0000000000e-03 0.0000000000e+00
4.3000000000e-01 1.0000000000e-03 0.0000000000e+00
4.4000000000e-01 1.0000000000e-03 0.0000000000e+00
4.5000000000e-01 1.0000000000e-03 0.0000000000e+00
4.6000000000e-01 1.0000000000e-03 0.0000000000e+00
4.7000000000e-01 1.0000000000e-03 0.0000000000e+00
4.8000000000e-01 1.0000000000e-03 0.0000000000e+00
4.9000000000e-01 1.0000000000e-03 0.0000000000e+00
5.0000000000e-01 1.0000000000e-03 0.0000000000e+00
5.1000000000e-01 1.0000000000e-03 0.0000000000e+00
5.2000000000e-01 1.0000000000e-03 0.0000000000e+00
5.3000000000e-01 1.0000000000e-03 0.0000000000e+00
5.4000000000e-01 1.0000000000e-03 0.0000000000e+00
5.5000000000e-01 1.0000000000e-03 0.0000000000e+00
5.6000000000e-01 1.0000000000e-03 0.0000000000e+00
5.7000000000e-01 1.0000000000e-03 0.0000000000e+00
5.8000000000e-01 1.0000000000e-03 0.0000000000e+00
5.9000000000e-01 1.0000000000e-03 0.0000000000e+00
6.0000000000e-01 1.0000000000e-03 0.0000000000e+00
6.1000000000e-01 1.0000000000e-03 0.0000000000e+00
6.2000000000e-01 1.0000000000e-03 0.0000000000e+00
6.3000000000e-01 1.0000000000e-03 0.0000000000e+00
6.4000000000e-01 1.0000000000e-03 0.0000000000e+00
6.5000000000e-01 1.0000000000e-03 0.0000000000e+00
6.6000000000e-01 1.0000000000e-03 0.0000000000e+00
6.7000000000e-01 1.0000000000e-03 0.0000000000e+00
6.8000000000e-01 1.0000000000e-03 0.0000000000e+00
6.9000000000e-01 1.0000000000e-03 0.0000000000e+00
7.0000000000e-01 1.0000000000e-03 0.0000000000e+00
7.1000000000e-01 1.0000000000e-03 0.0000000000e+00
7.2000000000e-01 1.0000000000e-03 0.0000000000e+00
7.3000000000e-01 1.0000000000e-03 0.0000000000e+00
7.4000000000e-01 1.0000000000e-03 0.0000000000e+00
7.5000000000e-01 1.0000000000e-03 0.0000000000e+00
7.6000000000e-01 1.0000000000e-03 0.0000000000e+00
7.7000000000e-01 1.0000000000e-03 0.0000000000e+00
7.8000000000e-01 1.0000000000e-03 0.0000000000e+00
7.9000000000e-01 1.0000000000e-03 0.0000000000e+00
8.0000000000e-01 1.0000000000e-03 0.0000000000e+00
8.1000000000e-01 1.0000000000e-03 0.0000000000e+00
8.2000000000e-01 1.0000000000e-03 0.0000000000e+00
8.3000000000e-01 1.0000000000e-03 0.0000000000e+00
8.4000000000e-01 1.0000000000e-03 0.0000000000e+00
8.5000000000e-01 1.0000000000e-03 0.0000000000e+00
8.6000000000e-01 1.0000000000e-03 0.0000000000e+00
8.7000000000e-01 1.0000000000e-03 0.0000000000e+00
8.8000000000e-01 1.0000000000e-03 0.0000000000e+00
8.9000000000e-01 1.0000000000e-03 0.0000000000e+00
9.0000000000e-01 1.0000000000e-03 0.0000000000e+00
9.1000000000e-01 1.0000000000e-03 0.0000000000e+00
9.2000000000e-01 1.0000000000e-03 0.0000000000e+00
[...]
CELL_DATA 1000

SCALARS massDensity float
LOOKUP_TABLE default
9.9999999996e+02
9.9999999996e+02
9.9999999996e+02
9.9999999996e+02
9.9999999996e+02
9.9999999996e+02
9.9999999996e+02
9.9999999996e+02
9.9999999996e+02
9.9999999996e+02
9.9999999995e+02
9.9999999994e+02
9.9999999988e+02
9.9999999968e+02
9.9999999897e+02
9.9999999660e+02
9.9999998890e+02
9.9999996476e+02
9.9999989168e+02
9.9999967831e+02
9.9999907810e+02
9.9999745339e+02
9.9999322656e+02
9.9998267183e+02
9.9995741146e+02
9.9989956063e+02
9.9977299311e+02
9.9950893623e+02
9.9898457953e+02
9.9799533051e+02
9.9622528491e+02
9.9322584112e+02
9.8841671218e+02
9.8112279386e+02
9.7065121958e+02
9.5639690674e+02
9.3794959739e+02
9.1517061813e+02
8.8821767774e+02
8.5751567341e+02
8.2368959897e+02
7.8748373316e+02
7.4968838767e+02
7.1108653874e+02
6.7242346314e+02
6.3439626580e+02
5.9765712015e+02
5.6282253311e+02
5.3047891406e+02
5.0117052107e+02
4.7534942163e+02
4.5326436862e+02
4.3478175289e+02
4.1922305493e+02
4.0534774350e+02
3.9161671514e+02
3.7679868035e+02
3.6045949987e+02
3.4308775480e+02
3.2582363509e+02
3.1000954757e+02
2.9676847872e+02
2.8656830564e+02
2.7852382015e+02
2.6957392647e+02
2.5495722188e+02
2.3130950789e+02
2.0065717939e+02
1.7043258500e+02
1.4785988001e+02
1.3485100544e+02
1.2879430813e+02
1.2636239158e+02
1.2546856086e+02
1.2515635702e+02
1.2505086185e+02
1.2501614510e+02
1.2500499949e+02
1.2500150920e+02
1.2500044382e+02
1.2500012708e+02
1.2500003541e+02
1.2500000960e+02
1.2500000254e+02
1.2500000065e+02
1.2500000017e+02
1.2500000004e+02
1.2500000001e+02
1.2500000001e+02
1.2500000001e+02
1.2500000000e+02
1.2500000000e+02
1.2500000000e+02
1.2500000000e+02
1.2500000000e+02
1.2500000000e+02
1.2500000000e+02
1.2500000000e+02
1.2500000000e+02
1.2500000000e+02
9.9999999996e+02
9.9999999996e+02
9.9999999996e+02
9.9999999996e+02
9.9999999996e+02
9.9999999996e+02
9.9999999996e+02
9.9999999996e+02
9.9999999996e+02
9.9999999996e+02
9.9999999995e+02
9.9999999994e+02
9.9999999988e+02
9.9999999968e+02
9.9999999897e+02
9.9999999660e+02
9.9999998890e+02
9.9999996476e+02
9.9999989168e+02
9.9999967831e+02
9.9999907810e+02
9.9999745339e+02
9.9999322656e+02
9.9998267183e+02
9.9995741146e+02
9.9989956063e+02
9.9977299311e+02
9.9950893623e+02
9.9898457953e+02
9.9799533051e+02
9.9622528491e+02
9.9322584112e+02
9.8841671218e+02
9.8112279386e+02
9.7065121958e+02
9.5639690674e+02
9.3794959739e+02
9.1517061813e+02
8.8821767774e+02
8.5751567341e+02
8.2368959897e+02
7.8748373316e+02
7.4968838767e+02
7.1108653874e+02
6.7242346314e+02
6.3439626580e+02
5.9765712015e+02
5.6282253311e+02
5.3047891406e+02
5.0117052107e+02
4.7534942163e+02
4.5326436862e+02
4.3478175289e+02
4.1922305493e+02
4.0534774350e+02
3.9161671514e+02
3.7679868035e+02
3.6045949987e+02
3.4308775480e+02
3.2582363509e+02
3.1000954757e+02
2.9676847872e+02
2.8656830564e+02
2.7852382015e+02
2.6957392647e+02
2.5495722188e+02
2.3130950789e+02
2.0065717939e+02
1.7043258500e+02
1.4785988001e+02
1.3485100544e+02
1.2879430813e+02
1.2636239158e+02
1.2546856086e+02
1.2515635702e+02
1.2505086185e+02
1.2501614510e+02
1.2500499949e+02
1.2500150920e+02
1.2500044382e+02
1.2500012708e+02
1.2500003541e+02
1.2500000960e+02
1.2500000254e+02
1.2500000065e+02
1.2500000017e+02
1.2500000004e+02
1.2500000001e+02
1.2500000001e+02
1.2500000001e+02
1.2500000000e+02
1.2500000000e+02
1.2500000000e+02
1.2500000000e+02
1.2500000000e+02
1.2500000000e+02
1.2500000000e+02
1.2500000000e+02
1.2500000000e+02
1.2500000000e+02
9.9999999996e+02
9.9999999996e+02
9.9999999996e+02
9.9999999996e+02
9.9999999996e+02
9.9999999996e+02
9.9999999996e+02
9.9999999996e+02
9.9999999996e+02
9.9999999996e+02
9.9999999995e+02
9.9999999994e+02
9.9999999988e+02
9.9999999968e+02
9.9999999897e+02
9.9999999660e+02
9.9999998890e+02
9.9999996476e+02
9.9999989168e+02
9.9999967831e+02
9.9999907810e+02
9.9999745339e+02
9.9999322656e+02
9.9998267183e+02
9.9995741146e+02
9.9989956063e+02
9.9977299311e+02
9.9950893623e+02
9.9898457953e+02
9.9799533051e+02
9.9622528491e+02
9.9322584112e+02
9.8841671218e+02
9.8112279386e+02
9.7065121958e+02
9.5639690674e+02
9.3794959739e+02
9.1517061813e+02
8.8821767774e+02
8.5751567341e+02
8.2368959897e+02
7.8748373316e+02
7.4968838767e+02
7.1108653874e+02
6.7242346314e+02
6.3439626580e+02
5.9765712015e+02
5.6282253311e+02
5.3047891406e+02
5.0117052107e+02
4.7534942163e+02
4.5326436862e+02
4.3478175289e+02
4.1922305493e+02
4.0534774350e+02
3.9161671514e+02
3.7679868035e+02
3.6045949987e+02
3.4308775480e+02
3.2582363509e+02
3.1000954757e+02
2.9676847872e+02
2.8656830564e+02
2.7852382015e+02
2.6957392647e+02
2.5495722188e+02
2.3130950789e+02
2.0065717939e+02
1.7043258500e+02
1.4785988001e+02
1.3485100544e+02
1.2879430813e+02
1.2636239158e+02
1.2546856086e+02
1.2515635702e+02
1.2505086185e+02
1.2501614510e+02
1.2500499949e+02
1.2500150920e+02
1.2500044382e+02
1.2500012708e+02
1.2500003541e+02
1.2500000960e+02
1.2500000254e+02
1.2500000065e+02
1.2500000017e+02
1.2500000004e+02
1.2500000001e+02
1.2500000001e+02
1.2500000001e+02
1.2500000000e+02
1.2500000000e+02
1.2500000000e+02
1.2500000000e+02
1.2500000000e+02
1.2500000000e+02
1.2500000000e+02
1.2500000000e+02
1.2500000000e+02
1.2500000000e+02
9.9999999996e+02
9.9999999996e+02
9.9999999996e+02
9.9999999996e+02
9.9999999996e+02
9.9999999996e+02
9.9999999996e+02
9.9999999996e+02
9.9999999996e+02
9.9999999996e+02
9.9999999995e+02
9.9999999994e+02
9.9999999988e+02
9.9999999968e+02
9.9999999897e+02
9.9999999660e+02
9.9999998890e+02
9.9999996476e+02
9.9999989168e+02
9.9999967831e+02
9.9999907810e+02
9.9999745339e+02
9.9999322656e+02
9.9998267183e+02
9.9995741146e+02
9.9989956063e+02
9.9977299311e+02
9.9950893623e+02
9.9898457953e+02
9.9799533051e+02
9.9622528491e+02
9.9322584112e+02
9.8841671218e+02
9.8112279386e+02
9.7065121958e+02
9.5639690674e+02
9.3794959739e+02
9.1517061813e+02
8.8821767774e+02
8.5751567341e+02
8.2368959897e+02
7.8748373316e+02
7.4968838767e+02
7.1108653874e+02
6.7242346314e+02
6.3439626580e+02
5.9765712015e+02
5.6282253311e+02
5.3047891406e+02
5.0117052107e+02
4.7534942163e+02
4.5326436862e+02
4.3478175289e+02
4.1922305493e+02
4.0534774350e+02
3.9161671514e+02
3.7679868035e+02
3.6045949987e+02
3.4308775480e+02
3.2582363509e+02
3.1000954757e+02
2.9676847872e+02
2.8656830564e+02
2.7852382015e+02
2.6957392647e+02
2.5495722188e+02
2.3130950789e+02
2.0065717939e+02
1.7043258500e+02
1.4785988001e+02
1.3485100544e+02
1.2879430813e+02
1.2636239158e+02
1.2546856086e+02
1.2515635702e+02
1.2505086185e+02
1.2501614510e+02
1.2500499949e+02
1.2500150920e+02
1.2500044382e+02
1.2500012708e+02
1.2500003541e+02
1.2500000960e+02
1.2500000254e+02
1.2500000065e+02
1.2500000017e+02
1.2500000004e+02
1.2500000001e+02
1.2500000001e+02
1.2500000001e+02
1.2500000000e+02
1.2500000000e+02
1.2500000000e+02
1.2500000000e+02
1.2500000000e+02
1.2500000000e+02
1.2500000000e+02
1.2500000000e+02
1.2500000000e+02
1.2500000000e+02
9.9999999996e+02
9.9999999996e+02
9.9999999996e+02
9.9999999996e+02
9.9999999996e+02
9.9999999996e+02
9.9999999996e+02
9.9999999996e+02
9.9999999996e+02
9.9999999996e+02
9.9999999995e+02
9.9999999994e+02
9.9999999988e+02
9.9999999968e+02
9.9999999897e+02
9.9999999660e+02
9.9999998890e+02
9.9999996476e+02
9.9999989168e+02
9.9999967831e+02
9.9999907810e+02
9.9999745339e+02
9.9999322656e+02
9.9998267183e+02
9.9995741146e+02
9.9989956063e+02
9.9977299311e+02
9.9950893623e+02
9.9898457953e+02
9.9799533051e+02
9.9622528491e+02
9.9322584112e+02
9.8841671218e+02
9.8112279386e+02
9.7065121958e+02
9.5639690674e+02
9.3794959739e+02
9.1517061813e+02
8.8821767774e+02
8.5751567341e+02
8.2368959897e+02
7.8748373316e+02
7.4968838767e+02
7.1108653874e+02
6.7242346314e+02
6.3439626580e+02
5.9765712015e+02
5.6282253311e+02
5.3047891406e+02
5.0117052107e+02
4.7534942163e+02
4.5326436862e+02
4.3478175289e+02
4.1922305493e+02
4.0534774350e+02
3.9161671514e+02
3.7679868035e+02
3.6045949987e+02
3.4308775480e+02
3.2582363509e+02
3.1000954757e+02
2.9676847872e+02
2.8656830564e+02
2.7852382015e+02
2.6957392647e+02
2.5495722188e+02
2.3130950789e+02
2.0065717939e+02
1.7043258500e+02
1.4785988001e+02
1.3485100544e+02
1.2879430813e+02
1.2636239158e+02
1.2546856086e+02
1.2515635702e+02
1.2505086185e+02
1.2501614510e+02
1.2500499949e+02
1.2500150920e+02
1.2500044382e+02
1.2500012708e+02
1.2500003541e+02
1.2500000960e+02
1.2500000254e+02
1.2500000065e+02
1.2500000017e+02
1.2500000004e+02
1.2500000001e+02
1.2500000001e+02
1.2500000001e+02
1.2500000000e+02
1.2500000000e+02
1.2500000000e+02
1.2500000000e+02
1.2500000000e+02
1.2500000000e+02
1.2500000000e+02
1.2500000000e+02
1.2500000000e+02
1.2500000000e+02
9.9999999996e+02
9.9999999996e+02
9.9999999996e+02
9.9999999996e+02
9.9999999996e+02
9.9999999996e+02
9.9999999996e+02
9.9999999996e+02
9.9999999996e+02
9.9999999996e+02
9.9999999995e+02
9.9999999994e+02
9.9999999988e+02
9.9999999968e+02
9.9999999897e+02
9.9999999660e+02
9.9999998890e+02
9.9999996476e+02
9.9999989168e+02
9.9999967831e+02
9.9999907810e+02
9.9999745339e+02
9.9999322656e+02
9.9998267183e+02
9.9995741146e+02
9.9989956063e+02
9.9977299311e+02
9.9950893623e+02
9.9898457953e+02
9.9799533051e+02
9.9622528491e+02
9.9322584112e+02
9.8841671218e+02
9.8112279386e+02
9.7065121958e+02
9.5639690674e+02
9.3794959739e+02
9.1517061813e+02
8.8821767774e+02
8.5751567341e+02
8.2368959897e+02
7.8748373316e+02
7.4968838767e+02
7.1108653874e+02
6.7242346314e+02
6.3439626580e+02
5.9765712015e+02
5.6282253311e+02
5.3047891406e+02
5.0117052107e+02
4.7534942163e+02
4.5326436862e+02
4.3478175289e+02
4.1922305493e+02
4.0534774350e+02
3.9161671514e+02
3.7679868035e+02
3.6045949987e+02
3.4308775480e+02
3.2582363509e+02
3.1000954757e+02
2.9676847872e+02
2.8656830564e+02
2.7852382015e+02
2.6957392647e+02
2.5495722188e+02
2.3130950789e+02
2.0065717939e+02
1.7043258500e+02
1.4785988001e+02
1.3485100544e+02
1.2879430813e+02
1.2636239158e+02
1.2546856086e+02
1.2515635702e+02
1.2505086185e+02
1.2501614510e+02
1.2500499949e+02
1.2500150920e+02
1.2500044382e+02
1.2500012708e+02
1.2500003541e+02
1.2500000960e+02
1.2500000254e+02
1.2500000065e+02
1.2500000017e+02
1.2500000004e+02
1.2500000001e+02
1.2500000001e+02
1.2500000001e+02
1.2500000000e+02
1.2500000000e+02
1.2500000000e+02
1.2500000000e+02
1.2500000000e+02
1.2500000000e+02
1.2500000000e+02
1.2500000000e+02
1.2500000000e+02
1.2500000000e+02
9.9999999996e+02
9.9999999996e+02
9.9999999996e+02
9.9999999996e+02
9.9999999996e+02
9.9999999996e+02
9.9999999996e+02
9.9999999996e+02
9.9999999996e+02
9.9999999996e+02
9.9999999995e+02
9.9999999994e+02
9.9999999988e+02
9.9999999968e+02
9.9999999897e+02
9.9999999660e+02
9.9999998890e+02
9.9999996476e+02
9.9999989168e+02
9.9999967831e+02
9.9999907810e+02
9.9999745339e+02
9.9999322656e+02
9.9998267183e+02
9.9995741146e+02
9.9989956063e+02
9.9977299311e+02
9.9950893623e+02
9.9898457953e+02
9.9799533051e+02
9.9622528491e+02
9.9322584112e+02
9.8841671218e+02
9.8112279386e+02
9.7065121958e+02
9.5639690674e+02
9.3794959739e+02
9.1517061813e+02
8.8821767774e+02
8.5751567341e+02
8.2368959897e+02
7.8748373316e+02
7.4968838767e+02
7.1108653874e+02
6.7242346314e+02
6.3439626580e+02
5.9765712015e+02
5.6282253311e+02
5.3047891406e+02
5.0117052107e+02
4.7534942163e+02
4.5326436862e+02
4.3478175289e+02
4.1922305493e+02
4.0534774350e+02
3.9161671514e+02
3.7679868035e+02
3.6045949987e+02
3.4308775480e+02
3.2582363509e+02
3.1000954757e+02
2.9676847872e+02
2.8656830564e+02
2.7852382015e+02
2.6957392647e+02
2.5495722188e+02
2.3130950789e+02
2.0065717939e+02
1.7043258500e+02
1.4785988001e+02
1.3485100544e+02
1.2879430813e+02
1.2636239158e+02
1.2546856086e+02
1.2515635702e+02
1.2505086185e+02
1.2501614510e+02
1.2500499949e+02
1.2500150920e+02
1.2500044382e+02
1.2500012708e+02
1.2500003541e+02
1.2500000960e+02
1.2500000254e+02
1.2500000065e+02
1.2500000017e+02
1.2500000004e+02
1.2500000001e+02
1.2500000001e+02
1.2500000001e+02
1.2500000000e+02
1.2500000000e+02
1.2500000000e+02
1.2500000000e+02
1.2500000000e+02
1.2500000000e+02
1.2500000000e+02
1.2500000000e+02
1.2500000000e+02
1.2500000000e+02
9.9999999996e+02
9.9999999996e+02
9.9999999996e+02
9.9999999996e+02
9.9999999996e+02
9.9999999996e+02
9.9999999996e+02
9.9999999996e+02
9.9999999996e+02
9.9999999996e+02
9.9999999995e+02
9.9999999994e+02
9.9999999988e+02
9.9999999968e+02
9.9999999897e+02
9.9999999660e+02
9.9999998890e+02
9.9999996476e+02
9.9999989168e+02
9.9999967831e+02
9.9999907810e+02
9.9999745339e+02
9.9999322656e+02
9.9998267183e+02
9.9995741146e+02
9.9989956063e+02
9.9977299311e+02
9.9950893623e+02
9.9898457953e+02
9.9799533051e+02
9.9622528491e+02
9.9322584112e+02
9.8841671218e+02
9.8112279386e+02
9.7065121958e+02
9.5639690674e+02
9.3794959739e+02
9.1517061813e+02
8.8821767774e+02
8.5751567341e+02
8.2368959897e+02
7.8748373316e+02
7.4968838767e+02
7.1108653874e+02
6.7242346314e+02
6.3439626580e+02
5.9765712015e+02
5.6282253311e+02
5.3047891406e+02
5.0117052107e+02
4.7534942163e+02
4.5326436862e+02
4.3478175289e+02
4.1922305493e+02
4.0534774350e+02
3.9161671514e+02
3.7679868035e+02
3.6045949987e+02
3.4308775480e+02
3.2582363509e+02
3.1000954757e+02
2.9676847872e+02
2.8656830564e+02
2.7852382015e+02
2.6957392647e+02
2.5495722188e+02
2.3130950789e+02
2.0065717939e+02
1.7043258500e+02
1.4785988001e+02
1.3485100544e+02
1.2879430813e+02
1.2636239158e+02
1.2546856086e+02
1.2515635702e+02
1.2505086185e+02
1.2501614510e+02
1.2500499949e+02
1.2500150920e+02
1.2500044382e+02
1.2500012708e+02
1.2500003541e+02
1.2500000960e+02
1.2500000254e+02
1.2500000065e+02
1.2500000017e+02
1.2500000004e+02
1.2500000001e+02
1.2500000001e+02
1.2500000001e+02
1.2500000000e+02
1.2500000000e+02
1.2500000000e+02
1.2500000000e+02
1.2500000000e+02
1.2500000000e+02
1.2500000000e+02
1.2500000000e+02
1.2500000000e+02
1.2500000000e+02
9.9999999996e+02
9.9999999996e+02
9.9999999996e+02
9.9999999996e+02
9.9999999996e+02
9.9999999996e+02
9.9999999996e+02
9.9999999996e+02
9.9999999996e+02
9.9999999996e+02
9.9999999995e+02
9.9999999994e+02
9.9999999988e+02
9.9999999968e+02
9.9999999897e+02
9.9999999660e+02
9.9999998890e+02
9.9999996476e+02
9.9999989168e+02
9.9999967831e+02
9.9999907810e+02
9.9999745339e+02
9.9999322656e+02
9.9998267183e+02
9.9995741146e+02
9.9989956063e+02
9.9977299311e+02
9.9950893623e+02
9.9898457953e+02
9.9799533051e+02
9.9622528491e+02
9.9322584112e+02
9.8841671218e+02
9.8112279386e+02
9.7065121958e+02
9.5639690674e+02
9.3794959739e+02
9.1517061813e+02
8.8821767774e+02
8.5751567341e+02
8.2368959897e+02
7.8748373316e+02
7.4968838767e+02
7.1108653874e+02
6.7242346314e+02
6.3439626580e+02
5.9765712015e+02
5.6282253311e+02
5.3047891406e+02
5.0117052107e+02
4.7534942163e+02
4.5326436862e+02
4.3478175289e+02
4.1922305493e+02
4.0534774350e+02
3.9161671514e+02
3.7679868035e+02
3.6045949987e+02
3.4308775480e+02
3.2582363509e+02
3.1000954757e+02
2.9676847872e+02
2.8656830564e+02
2.7852382015e+02
2.6957392647e+02
2.5495722188e+02
2.3130950789e+02
2.0065717939e+02
1.7043258500e+02
1.4785988001e+02
1.3485100544e+02
1.2879430813e+02
1.2636239158e+02
1.2546856086e+02
1.2515635702e+02
1.2505086185e+02
1.2501614510e+02
1.2500499949e+02
1.2500150920e+02
1.2500044382e+02
1.2500012708e+02
1.2500003541e+02
1.2500000960e+02
1.2500000254e+02
1.2500000065e+02
1.2500000017e+02
1.2500000004e+02
1.2500000001e+02
1.2500000001e+02
1.2500000001e+02
1.2500000000e+02
1.2500000000e+02
1.2500000000e+02
1.2500000000e+02
1.2500000000e+02
1.2500000000e+02
1.2500000000e+02
1.2500000000e+02
1.2500000000e+02
1.2500000000e+02
9.9999999996e+02
9.9999999996e+02
9.9999999996e+02
9.9999999996e+02
9.9999999996e+02
9.9999999996e+02
9.9999999996e+02
9.9999999996e+02
9.9999999996e+02
9.9999999996e+02
9.9999999995e+02
9.9999999994e+02
9.9999999988e+02
9.9999999968e+02
9.9999999897e+02
9.9999999660e+02
9.9999998890e+02
9.9999996476e+02
9.9999989168e+02
9.9999967831e+02
9.9999907810e+02
9.9999745339e+02
9.9999322656e+02
9.9998267183e+02
9.9995741146e+02
9.9989956063e+02
9.9977299311e+02
9.9950893623e+02
9.9898457953e+02
9.9799533051e+02
9.9622528491e+02
9.9322584112e+02
9.8841671218e+02
9.8112279386e+02
9.7065121958e+02
9.5639690674e+02
9.3794959739e+02
9.1517061813e+02
8.8821767774e+02
8.5751567341e+02
8.2368959897e+02
7.8748373316e+02
7.4968838767e+02
7.1108653874e+02
6.7242346314e+02
6.3439626580e+02
5.9765712015e+02
5.6282253311e+02
5.3047891406e+02
5.0117052107e+02
4.7534942163e+02
4.5326436862e+02
4.3478175289e+02
4.1922305493e+02
4.0534774350e+02
3.9161671514e+02
3.7679868035e+02
3.6045949987e+02
3.4308775480e+02
3.2582363509e+02
3.1000954757e+02
2.9676847872e+02
2.8656830564e+02
2.7852382015e+02
2.6957392647e+02
2.5495722188e+02
2.3130950789e+02
2.0065717939e+02
1.7043258500e+02
1.4785988001e+02
1.3485100544e+02
1.2879430813e+02
1.2636239158e+02
1.2546856086e+02
1.2515635702e+02
1.2505086185e+02
1.2501614510e+02
1.2500499949e+02
1.2500150920e+02
1.2500044382e+02
1.2500012708e+02
1.2500003541e+02
1.2500000960e+02
1.2500000254e+02
1.2500000065e+02
1.2500000017e+02
1.2500000004e+02
1.2500000001e+02
1.2500000001e+02
1.2500000001e+02
1.2500000000e+02
1.2500000000e+02
1.2500000000e+02
1.2500000000e+02
1.2500000000e+02
1.2500000000e+02
1.2500000000e+02
1.2500000000e+02
1.2500000000e+02
1.2500000000e+02

SCALARS molarDensity float
LOOKUP_TABLE default
1.2977624132e+05
1.2977624132e+05
1.2977624132e+05
1.2977624132e+05
1.2977624132e+05
1.2977624132e+05
1.2977624132e+05
1.2977624132e+05
1.2977624132e+05
1.2977624132e+05
1.2977624132e+05
1.2977624132e+05
1.2977624131e+05
1.2977624128e+05
1.2977624119e+05
1.2977624089e+05
1.2977623989e+05
1.2977623675e+05
1.2977622727e+05
1.2977619958e+05
1.2977612169e+05
1.2977591084e+05
1.2977536230e+05
1.2977399254e+05
1.2977071435e+05
1.2976320668e+05
1.2974678123e+05
1.2971251292e+05
1.2964446387e+05
1.2951608286e+05
1.2928637299e+05
1.2889711645e+05
1.2827300577e+05
1.2732642847e+05
1.2596746692e+05
1.2411759577e+05
1.2172357330e+05
1.1876740299e+05
1.1526955170e+05
1.1128516097e+05
1.0689534017e+05
1.0219667900e+05
9.7291741118e+04
9.2282138255e+04
8.7264589626e+04
8.2329562888e+04
7.7561694655e+04
7.3040992881e+04
6.8843559570e+04
6.5040026489e+04
6.1689061256e+04
5.8822946087e+04
5.6424341687e+04
5.4405192346e+04
5.2604506581e+04
5.0822545332e+04
4.8899516472e+04
4.6779079044e+04
4.4524639263e+04
4.2284166698e+04
4.0231873859e+04
3.8513497712e+04
3.7189757589e+04
3.6145774499e+04
3.4984290937e+04
3.3087389954e+04
3.0018478517e+04
2.6040534537e+04
2.2118100281e+04
1.9188699470e+04
1.7500456626e+04
1.6714441213e+04
1.6398836224e+04
1.6282838233e+04
1.6242321592e+04
1.6228630826e+04
1.6224125416e+04
1.6222678981e+04
1.6222226025e+04
1.6222087764e+04
1.6222046658e+04
1.6222034762e+04
1.6222031412e+04
1.6222030495e+04
1.6222030251e+04
1.6222030188e+04
1.6222030172e+04
1.6222030168e+04
1.6222030167e+04
1.6222030167e+04
1.6222030166e+04
1.6222030166e+04
1.6222030166e+04
1.6222030166e+04
1.6222030166e+04
1.6222030166e+04
1.6222030166e+04
1.6222030166e+04
1.6222030166e+04
1.6222030166e+04
1.2977624132e+05
1.2977624132e+05
1.2977624132e+05
1.2977624132e+05
1.2977624132e+05
1.2977624132e+05
1.2977624132e+05
1.2977624132e+05
1.2977624132e+05
1.2977624132e+05
1.2977624132e+05
1.2977624132e+05
1.2977624131e+05
1.2977624128e+05
1.2977624119e+05
1.2977624089e+05
1.2977623989e+05
1.2977623675e+05
1.2977622727e+05
1.2977619958e+05
1.2977612169e+05
1.2977591084e+05
1.2977536230e+05
1.2977399254e+05
1.2977071435e+05
1.2976320668e+05
1.2974678123e+05
1.2971251292e+05
1.2964446387e+05
1.2951608286e+05
1.2928637299e+05
1.2889711645e+05
1.2827300577e+05
1.2732642847e+05
1.2596746692e+05
1.2411759577e+05
1.2172357330e+05
1.1876740299e+05
1.1526955170e+05
1.1128516097e+05
1.0689534017e+05
1.0219667900e+05
9.7291741118e+04
9.2282138255e+04
8.7264589626e+04
8.2329562888e+04
7.7561694655e+04
7.3040992881e+04
6.8843559570e+04
6.5040026489e+04
6.1689061256e+04
5.8822946087e+04
5.6424341687e+04
5.4405192346e+04
5.2604506581e+04
5.0822545332e+04
4.8899516472e+04
4.6779079044e+04
4.4524639263e+04
4.2284166698e+04
4.0231873859e+04
3.8513497712e+04
3.7189757589e+04
3.6145774499e+04
3.4984290937e+04
3.3087389954e+04
3.0018478517e+04
2.6040534537e+04
2.2118100281e+04