# vtk DataFile Version 2.0
Blank
ASCII
DATASET STRUCTURED_GRID
DIMENSIONS 101 11 2
POINTS 2222 float
0.0000000000e+00 0.0000000000e+00 0.0000000000e+00
1.0000000000e-02 0.0000000000e+00 0.0000000000e+00
2.0000000000e-02 0.0000000000e+00 0.0000000000e+00
3.0000000000e-02 0.0000000000e+00 0.0000000000e+00
4.0000000000e-02 0.0000000000e+00 0.0000000000e+00
5.0000000000e-02 0.0000000000e+00 0.0000000000e+00
6.0000000000e-02 0.0000000000e+00 0.0000000000e+00
7.0000000000e-02 0.0000000000e+00 0.0000000000e+00
8.0000000000e-02 0.0000000000e+00 0.0000000000e+00
9.0000000000e-02 0.0000000000e+00 0.0000000000e+00
1.0000000000e-01 0.0000000000e+00 0.0000000000e+00
1.1000000000e-01 0.0000000000e+00 0.0000000000e+00
1.2000000000e-01 0.0000000000e+00 0.0000000000e+00
1.3000000000e-01 0.0000000000e+00 0.0000000000e+00
1.4000000000e-01 0.0000000000e+00 0.0000000000e+00
1.5000000000e-01 0.0000000000e+00 0.0000000000e+00
1.6000000000e-01 0.0000000000e+00 0.0000000000e+00
1.7000000000e-01 0.0000000000e+00 0.0000000000e+00
1.8000000000e-01 0.0000000000e+00 0.0000000000e+00
1.9000000000e-01 0.0000000000e+00 0.0000000000e+00
2.0000000000e-01 0.0000000000e+00 0.0000000000e+00
2.1000000000e-01 0.0000000000e+00 0.0000000000e+00
2.2000000000e-01 0.0000000000e+00 0.0000000000e+00
2.3000000000e-01 0.0000000000e+00 0.0000000000e+00
2.4000000000e-01 0.0000000000e+00 0.0000000000e+00
2.5000000000e-01 0.0000000000e+00 0.0000000000e+00
2.6000000000e-01 0.0000000000e+00 0.0000000000e+00
2.7000000000e-01 0.0000000000e+00 0.0000000000e+00
2.8000000000e-01 0.0000000000e+00 0.0000000000e+00
2.9000000000e-01 0.0000000000e+00 0.0000000000e+00
3.0000000000e-01 0.0000000000e+00 0.0000000000e+00
3.1000000000e-01 0.0000000000e+00 0.0000000000e+00
3.2000000000e-01 0.0000000000e+00 0.0000000000e+00
3.3000000000e-01 0.0000000000e+00 0.0000000000e+00
3.4000000000e-01 0.0000000000e+00 0.0000000000e+00
3.5000000000e-01 0.0000000000e+00 0.0000000000e+00
3.6000000000e-01 0.0000000000e+00 0.0000000000e+00
3.7000000000e-01 0.0000000000e+00 0.0000000000e+00
3.8000000000e-01 0.0000000000e+00 0.0000000000e+00
3.9000000000e-01 0.0000000000e+00 0.0000000000e+00
4.0000000000e-01 0.0000000000e+00 0.0000000000e+00
4.1000000000e-01 0.0000000000e+00 0.0000000000e+00
4.2000000000e-01 0.0000000000e+00 0.0000000000e+00
4.3000000000e-01 0.0000000000e+00 0.0000000000e+00
4.4000000000e-01 0.0000000000e+00 0.0000000000e+00
4.5000000000e-01 0.0000000000e+00 0.0000000000e+00
4.6000000000e-01 0.0000000000e+00 0.0000000000e+00
4.7000000000e-01 0.0000000000e+00 0.0000000000e+00
4.8000000000e-01 0.0000000000e+00 0.0000000000e+00
4.9000000000e-01 0.0000000000e+00 0.0000000000e+00
5.0000000000e-01 0.0000000000e+00 0.0000000000e+00
5.1000000000e-01 0.0000000000e+00 0.0000000000e+00
5.2000000000e-01 0.0000000000e+00 0.0000000000e+00
5.3000000000e-01 0.0000000000e+00 0.0000000000e+00
5.4000000000e-01 0.0000000000e+00 0.0000000000e+00
5.5000000000e-01 0.0000000000e+00 0.0000000000e+00
5.6000000000e-01 0.0000000000e+00 0.0000000000e+00
5.7000000000e-01 0.0000000000e+00 0.0000000000e+00
5.8000000000e-01 0.0000000000e+00 0.0000000000e+00
5.9000000000e-01 0.0000000000e+00 0.0000000000e+00
6.0000000000e-01 0.0000000000e+00 0.0000000000e+00
6.1000000000e-01 0.0000000000e+00 0.0000000000e+00
6.2000000000e-01 0.0000000000e+00 0.0000000000e+00
6.3000000000e-01 0.0000000000e+00 0.0000000000e+00
6.4000000000e-01 0.0000000000e+00 0.0000000000e+00
6.5000000000e-01 0.0000000000e+00 0.0000000000e+00
6.6000000000e-01 0.0000000000e+00 0.0000000000e+00
6.7000000000e-01 0.0000000000e+00 0.0000000000e+00
6.8000000000e-01 0.0000000000e+00 0.0000000000e+00
6.9000000000e-01 0.0000000000e+00 0.0000000000e+00
7.0000000000e-01 0.0000000000e+00 0.0000000000e+00
7.1000000000e-01 0.0000000000e+00 0.0000000000e+00
7.2000000000e-01 0.0000000000e+00 0.0000000000e+00
7.3000000000e-01 0.0000000000e+00 0.0000000000e+00
7.4000000000e-01 0.0000000000e+00 0.0000000000e+00
7.5000000000e-01 0.0000000000e+00 0.0000000000e+00
7.6000000000e-01 0.0000000000e+00 0.0000000000e+00
7.7000000000e-01 0.0000000000e+00 0.0000000000e+00
7.8000000000e-01 0.0000000000e+00 0.0000000000e+00
7.9000000000e-01 0.0000000000e+00 0.0000000000e+00
8.0000000000e-01 0.0000000000e+00 0.0000000000e+00
8.1000000000e-01 0.0000000000e+00 0.0000000000e+00
8.2000000000e-01 0.0000000000e+00 0.0000000000e+00
8.3000000000e-01 0.0000000000e+00 0.0000000000e+00
8.4000000000e-01 0.0000000000e+00 0.0000000000e+00
8.5000000000e-01 0.0000000000e+00 0.0000000000e+00
8.6000000000e-01 0.0000000000e+00 0.0000000000e+00
8.7000000000e-01 0.0000000000e+00 0.0000000000e+00
8.8000000000e-01 0.0000000000e+00 0.0000000000e+00
8.9000000000e-01 0.0000000000e+00 0.0000000000e+00
9.0000000000e-01 0.0000000000e+00 0.0000000000e+00
9.1000000000e-01 0.0000000000e+00 0.0000000000e+00
9.2000000000e-01 0.0000000000e+00 0.0000000000e+00
9.3000000000e-01 0.0000000000e+00 0.0000000000e+00
9.4000000000e-01 0.0000000000e+00 0.0000000000e+00
9.5000000000e-01 0.0000000000e+00 0.0000000000e+00
9.6000000000e-01 0.0000000000e+00 0.0000000000e+00
9.7000000000e-01 0.0000000000e+00 0.0000000000e+00
9.8000000000e-01 0.0000000000e+00 0.0000000000e+00
9.9000000000e-01 0.0000000000e+00 0.0000000000e+00
1.0000000000e+00 0.0000000000e+00 0.0000000000e+00
0.0000000000e+00 1.0000000000e-03 0.0000000000e+00
1.0000000000e-02 1.0000000000e-03 0.0000000000e+00
2.0000000000e-02 1.0000000000e-03 0.0000000000e+00
3.0000000000e-02 1.0000000000e-03 0.0000000000e+00
4.0000000000e-02 1.0000000000e-03 0.0000000000e+00
5.0000000000e-02 1.0000000000e-03 0.0000000000e+00
6.0000000000e-02 1.0000000000e-03 0.0000000000e+00
7.0000000000e-02 1.0000000000e-03 0.0000000000e+00
8.0000000000e-02 1.0000000000e-03 0.0000000000e+00
9.0000000000e-02 1.0000000000e-03 0.0000000000e+00
1.0000000000e-01 1.0000000000e-03 0.0000000000e+00
1.1000000000e-01 1.0000000000e-03 0.0000000000e+00
1.2000000000e-01 1.0000000000e-03 0.0000000000e+00
1.3000000000e-01 1.0000000000e-03 0.0000000000e+00
1.4000000000e-01 1.0000000000e-03 0.0000000000e+00
1.5000000000e-01 1.0000000000e-03 0.0000000000e+00
1.6000000000e-01 1.0000000000e-03 0.0000000000e+00
1.7000000000e-01 1.0000000000e-03 0.0000000000e+00
1.8000000000e-01 1.0000000000e-03 0.0000000000e+00
1.9000000000e-01 1.0000000000e-03 0.0000000000e+00
2.0000000000e-01 1.0000000000e-03 0.0000000000e+00
2.1000000000e-01 1.0000000000e-03 0.0000000000e+00
2.2000000000e-01 1.0000000000e-03 0.0000000000e+00
2.3000000000e-01 1.0000000000e-03 0.0000000000e+00
2.4000000000e-01 1.0000000000e-03 0.0000000000e+00
2.5000000000e-01 1.0000000000e-03 0.0000000000e+00
2.6000000000e-01 1.0000000000e-03 0.0000000000e+00
2.7000000000e-01 1.0000000000e-03 0.0000000000e+00
2.8000000000e-01 1.0000000000e-03 0.0000000000e+00
2.9000000000e-01 1.0000000000e-03 0.0000000000e+00
3.0000000000e-01 1.0000000000e-03 0.0000000000e+00
3.1000000000e-01 1.0000000000e-03 0.0000000000e+00
3.2000000000e-01 1.0000000000e-03 0.0000000000e+00
3.3000000000e-01 1.0000000000e-03 0.0000000000e+00
3.4000000000e-01 1.0000000000e-03 0.0000000000e+00
3.5000000000e-01 1.0000000000e-03 0.0000000000e+00
3.6000000000e-01 1.0000000000e-03 0.0000000000e+00
3.7000000000e-01 1.0000000000e-03 0.0000000000e+00
3.8000000000e-01 1.0000000000e-03 0.0000000000e+00
3.9000000000e-01 1.0000000000e-03 0.0000000000e+00
4.0000000000e-01 1.0000000000e-03 0.0000000000e+00
4.1000000000e-01 1.0000000000e-03 0.0000000000e+00
4.2000000000e-01 1.0000000000e-03 0.0000000000e+00
4.3000000000e-01 1.0000000000e-03 0.0000000000e+00
4.4000000000e-01 1.0000000000e-03 0.0000000000e+00
4.5000000000e-01 1.0000000000e-03 0.0000000000e+00
4.6000000000e-01 1.0000000000e-03 0.0000000000e+00
4.7000000000e-01 1.0000000000e-03 0.0000000000e+00
4.8000000000e-01 1.0000000000e-03 0.0000000000e+00
4.9000000000e-01 1.0000000000e-03 0.0000000000e+00
5.0000000000e-01 1.0000000000e-03 0.0000000000e+00
5.1000000000e-01 1.0000000000e-03 0.0000000000e+00
5.2000000000e-01 1.0000000000e-03 0.0000000000e+00
5.3000000000e-01 1.0000000000e-03 0.0000000000e+00
5.4000000000e-01 1.0000000000e-03 0.0000000000e+00
5.5000000000e-01 1.0000000000e-03 0.0000000000e+00
5.6000000000e-01 1.0000000000e-03 0.0000000000e+00
5.7000000000e-01 1.0000000000e-03 0.0000000000e+00
5.8000000000e-01 1.0000000000e-03 0.0000000000e+00
5.9000000000e-01 1.0000000000e-03 0.0000000000e+00
6.0000000000e-01 1.0000000000e-03 0.0000000000e+00
6.1000000000e-01 1.0000000000e-03 0.0000000000e+00
6.2000000000e-01 1.0000000000e-03 0.0000000000e+00
6.3000000000e-01 1.0000000000e-03 0.0000000000e+00
6.4000000000e-01 1.0000000000e-03 0.0000000000e+00
6.5000000000e-01 1.0000000000e-03 0.0000000000e+00
6.6000000000e-01 1.0000000000e-03 0.0000000000e+00
6.7000000000e-01 1.0000000000e-03 0.0000000000e+00
6.8000000000e-01 1.0000000000e-03 0.0000000000e+00
6.9000000000e-01 1.0000000000e-03 0.0000000000e+00
7.0000000000e-01 1.0000000000e-03 0.0000000000e+00
7.1000000000e-01 1.0000000000e-03 0.0000000000e+00
7.2000000000e-01 1.0000000000e-03 0.0000000000e+00
7.3000000000e-01 1.0000000000e-03 0.0000000000e+00
7.4000000000e-01 1.0000000000e-03 0.0000000000e+00
7.5000000000e-01 1.0000000000e-03 0.0000000000e+00
7.6000000000e-01 1.0000000000e-03 0.0000000000e+00
7.7000000000e-01 1.0000000000e-03 0.0000000000e+00
7.8000000000e-01 1.0000000000e-03 0.0000000000e+00
7.9000000000e-01 1.0000000000e-03 0.0000000000e+00
8.0000000000e-01 1.0000000000e-03 0.0000000000e+00
8.1000000000e-01 1.0000000000e-03 0.0000000000e+00
8.2000000000e-01 1.0000000000e-03 0.0000000000e+00
8.3000000000e-01 1.0000000000e-03 0.0000000000e+00
8.4000000000e-01 1.0000000000e-03 0.0000000000e+00
8.5000000000e-01 1.0000000000e-03 0.0000000000e+00
8.6000000000e-01 1.0000000000e-03 0.0000000000e+00
8.7000000000e-01 1.0000000000e-03 0.0000000000e+00
8.8000000000e-01 1.0000000000e-03 0.0000000000e+00
8.9000000000e-01 1.0000000000e-03 0.0000000000e+00
9.0000000000e-01 1.0000000000e-03 0.0000000000e+00
9.1000000000e-01 1.0000000000e-03 0.0000000000e+00
9.2000000000e-01 1.0000000000e-03 0.0000000000e+00
[...]
CELL_DATA 1000

SCALARS massDensity float
LOOKUP_TABLE default
9.9999999996e+02
9.9999999995e+02
9.9999999994e+02
9.9999999990e+02
9.9999999979e+02
9.9999999944e+02
9.9999999842e+02
9.9999999550e+02
9.9999998736e+02
9.9999996530e+02
9.9999990714e+02
9.9999975814e+02
9.9999938743e+02
9.9999849241e+02
9.9999639713e+02
9.9999164488e+02
9.9998121178e+02
9.9995906192e+02
9.9991363348e+02
9.9982372236e+02
9.9965219487e+02
9.9933714396e+02
9.9878066683e+02
9.9783649443e+02
9.9629915761e+02
9.9389879176e+02
9.9030624850e+02
9.8515200900e+02
9.7805910998e+02
9.6868566065e+02
9.5676843243e+02
9.4215756010e+02
9.2483459305e+02
9.0491108304e+02
8.8261032859e+02
8.5823859544e+02
8.3215310434e+02
8.0473275436e+02
7.7635513316e+02
7.4738100785e+02
7.1814583332e+02
6.8895697923e+02
6.6009517111e+02
6.3181878312e+02
6.0436986166e+02
5.7798091604e+02
5.5288144418e+02
5.2930274820e+02
5.0747874517e+02
4.8763924151e+02
4.6999095573e+02
4.5468161649e+02
4.4174560729e+02
4.3103713153e+02
4.2216856504e+02
4.1450401335e+02
4.0718883733e+02
3.9930649055e+02
3.9007989935e+02
3.7906892941e+02
3.6628677362e+02
3.5218494448e+02
3.3751721506e+02
3.2314324758e+02
3.0984484782e+02
2.9820687375e+02
2.8858293591e+02
2.8113143309e+02
2.7584795135e+02
2.7241343704e+02
2.6963098455e+02
2.6463809974e+02
2.5312134096e+02
2.3192643810e+02
2.0287006645e+02
1.7309113257e+02
1.5001427329e+02
1.3618650219e+02
1.2948493264e+02
1.2668318183e+02
1.2560893587e+02
1.2521553603e+02
1.2507508362e+02
1.2502578505e+02
1.2500872862e+02
1.2500291047e+02
1.2500095507e+02
1.2500030817e+02
1.2500009770e+02
1.2500003041e+02
1.2500000929e+02
1.2500000279e+02
1.2500000082e+02
1.2500000024e+02
1.2500000007e+02
1.2500000002e+02
1.2500000001e+02
1.2500000001e+02
1.2500000001e+02
1.2500000000e+02
9.9999999996e+02
9.9999999995e+02
9.9999999994e+02
9.9999999990e+02
9.9999999979e+02
9.9999999944e+02
9.9999999842e+02
9.9999999550e+02
9.9999998736e+02
9.9999996530e+02
9.9999990714e+02
9.9999975814e+02
9.9999938743e+02
9.9999849241e+02
9.9999639713e+02
9.9999164488e+02
9.9998121178e+02
9.9995906192e+02
9.9991363348e+02
9.9982372236e+02
9.9965219487e+02
9.9933714396e+02
9.9878066683e+02
9.9783649443e+02
9.9629915761e+02
9.9389879176e+02
9.9030624850e+02
9.8515200900e+02
9.7805910998e+02
9.6868566065e+02
9.5676843243e+02
9.4215756010e+02
9.2483459305e+02
9.0491108304e+02
8.8261032859e+02
8.5823859544e+02
8.3215310434e+02
8.0473275436e+02
7.7635513316e+02
7.4738100785e+02
7.1814583332e+02
6.8895697923e+02
6.6009517111e+02
6.3181878312e+02
6.0436986166e+02
5.7798091604e+02
5.5288144418e+02
5.2930274820e+02
5.0747874517e+02
4.8763924151e+02
4.6999095573e+02
4.5468161649e+02
4.4174560729e+02
4.3103713153e+02
4.2216856504e+02
4.1450401335e+02
4.0718883733e+02
3.9930649055e+02
3.9007989935e+02
3.7906892941e+02
3.6628677362e+02
3.5218494448e+02
3.3751721506e+02
3.2314324758e+02
3.0984484782e+02
2.9820687375e+02
2.8858293591e+02
2.8113143309e+02
2.7584795135e+02
2.7241343704e+02
2.6963098455e+02
2.6463809974e+02
2.5312134096e+02
2.3192643810e+02
2.0287006645e+02
1.7309113257e+02
1.5001427329e+02
1.3618650219e+02
1.2948493264e+02
1.2668318183e+02
1.2560893587e+02
1.2521553603e+02
1.2507508362e+02
1.2502578505e+02
1.2500872862e+02
1.2500291047e+02
1.2500095507e+02
1.2500030817e+02
1.2500009770e+02
1.2500003041e+02
1.2500000929e+02
1.2500000279e+02
1.2500000082e+02
1.2500000024e+02
1.2500000007e+02
1.2500000002e+02
1.2500000001e+02
1.2500000001e+02
1.2500000001e+02
1.2500000000e+02
9.9999999996e+02
9.9999999995e+02
9.9999999994e+02
9.9999999990e+02
9.9999999979e+02
9.9999999944e+02
9.9999999842e+02
9.9999999550e+02
9.9999998736e+02
9.9999996530e+02
9.9999990714e+02
9.9999975814e+02
9.9999938743e+02
9.9999849241e+02
9.9999639713e+02
9.9999164488e+02
9.9998121178e+02
9.9995906192e+02
9.9991363348e+02
9.9982372236e+02
9.9965219487e+02
9.9933714396e+02
9.9878066683e+02
9.9783649443e+02
9.9629915761e+02
9.9389879176e+02
9.9030624850e+02
9.8515200900e+02
9.7805910998e+02
9.6868566065e+02
9.5676843243e+02
9.4215756010e+02
9.2483459305e+02
9.0491108304e+02
8.8261032859e+02
8.5823859544e+02
8.3215310434e+02
8.0473275436e+02
7.7635513316e+02
7.4738100785e+02
7.1814583332e+02
6.8895697923e+02
6.6009517111e+02
6.3181878312e+02
6.0436986166e+02
5.7798091604e+02
5.5288144418e+02
5.2930274820e+02
5.0747874517e+02
4.8763924151e+02
4.6999095573e+02
4.5468161649e+02
4.4174560729e+02
4.3103713153e+02
4.2216856504e+02
4.1450401335e+02
4.0718883733e+02
3.9930649055e+02
3.9007989935e+02
3.7906892941e+02
3.6628677362e+02
3.5218494448e+02
3.3751721506e+02
3.2314324758e+02
3.0984484782e+02
2.9820687375e+02
2.8858293591e+02
2.8113143309e+02
2.7584795135e+02
2.7241343704e+02
2.6963098455e+02
2.6463809974e+02
2.5312134096e+02
2.3192643810e+02
2.0287006645e+02
1.7309113257e+02
1.5001427329e+02
1.3618650219e+02
1.2948493264e+02
1.2668318183e+02
1.2560893587e+02
1.2521553603e+02
1.2507508362e+02
1.2502578505e+02
1.2500872862e+02
1.2500291047e+02
1.2500095507e+02
1.2500030817e+02
1.2500009770e+02
1.2500003041e+02
1.2500000929e+02
1.2500000279e+02
1.2500000082e+02
1.2500000024e+02
1.2500000007e+02
1.2500000002e+02
1.2500000001e+02
1.2500000001e+02
1.2500000001e+02
1.2500000000e+02
9.9999999996e+02
9.9999999995e+02
9.9999999994e+02
9.9999999990e+02
9.9999999979e+02
9.9999999944e+02
9.9999999842e+02
9.9999999550e+02
9.9999998736e+02
9.9999996530e+02
9.9999990714e+02
9.9999975814e+02
9.9999938743e+02
9.9999849241e+02
9.9999639713e+02
9.9999164488e+02
9.9998121178e+02
9.9995906192e+02
9.9991363348e+02
9.9982372236e+02
9.9965219487e+02
9.9933714396e+02
9.9878066683e+02
9.9783649443e+02
9.9629915761e+02
9.9389879176e+02
9.9030624850e+02
9.8515200900e+02
9.7805910998e+02
9.6868566065e+02
9.5676843243e+02
9.4215756010e+02
9.2483459305e+02
9.0491108304e+02
8.8261032859e+02
8.5823859544e+02
8.3215310434e+02
8.0473275436e+02
7.7635513316e+02
7.4738100785e+02
7.1814583332e+02
6.8895697923e+02
6.6009517111e+02
6.3181878312e+02
6.0436986166e+02
5.7798091604e+02
5.5288144418e+02
5.2930274820e+02
5.0747874517e+02
4.8763924151e+02
4.6999095573e+02
4.5468161649e+02
4.4174560729e+02
4.3103713153e+02
4.2216856504e+02
4.1450401335e+02
4.0718883733e+02
3.9930649055e+02
3.9007989935e+02
3.7906892941e+02
3.6628677362e+02
3.5218494448e+02
3.3751721506e+02
3.2314324758e+02
3.0984484782e+02
2.9820687375e+02
2.8858293591e+02
2.8113143309e+02
2.7584795135e+02
2.7241343704e+02
2.6963098455e+02
2.6463809974e+02
2.5312134096e+02
2.3192643810e+02
2.0287006645e+02
1.7309113257e+02
1.5001427329e+02
1.3618650219e+02
1.2948493264e+02
1.2668318183e+02
1.2560893587e+02
1.2521553603e+02
1.2507508362e+02
1.2502578505e+02
1.2500872862e+02
1.2500291047e+02
1.2500095507e+02
1.2500030817e+02
1.2500009770e+02
1.2500003041e+02
1.2500000929e+02
1.2500000279e+02
1.2500000082e+02
1.2500000024e+02
1.2500000007e+02
1.2500000002e+02
1.2500000001e+02
1.2500000001e+02
1.2500000001e+02
1.2500000000e+02
9.9999999996e+02
9.9999999995e+02
9.9999999994e+02
9.9999999990e+02
9.9999999979e+02
9.9999999944e+02
9.9999999842e+02
9.9999999550e+02
9.9999998736e+02
9.9999996530e+02
9.9999990714e+02
9.9999975814e+02
9.9999938743e+02
9.9999849241e+02
9.9999639713e+02
9.9999164488e+02
9.9998121178e+02
9.9995906192e+02
9.9991363348e+02
9.9982372236e+02
9.9965219487e+02
9.9933714396e+02
9.9878066683e+02
9.9783649443e+02
9.9629915761e+02
9.9389879176e+02
9.9030624850e+02
9.8515200900e+02
9.7805910998e+02
9.6868566065e+02
9.5676843243e+02
9.4215756010e+02
9.2483459305e+02
9.0491108304e+02
8.8261032859e+02
8.5823859544e+02
8.3215310434e+02
8.0473275436e+02
7.7635513316e+02
7.4738100785e+02
7.1814583332e+02
6.8895697923e+02
6.6009517111e+02
6.3181878312e+02
6.0436986166e+02
5.7798091604e+02
5.5288144418e+02
5.2930274820e+02
5.0747874517e+02
4.8763924151e+02
4.6999095573e+02
4.5468161649e+02
4.4174560729e+02
4.3103713153e+02
4.2216856504e+02
4.1450401335e+02
4.0718883733e+02
3.9930649055e+02
3.9007989935e+02
3.7906892941e+02
3.6628677362e+02
3.5218494448e+02
3.3751721506e+02
3.2314324758e+02
3.0984484782e+02
2.9820687375e+02
2.8858293591e+02
2.8113143309e+02
2.7584795135e+02
2.7241343704e+02
2.6963098455e+02
2.6463809974e+02
2.5312134096e+02
2.3192643810e+02
2.0287006645e+02
1.7309113257e+02
1.5001427329e+02
1.3618650219e+02
1.2948493264e+02
1.2668318183e+02
1.2560893587e+02
1.2521553603e+02
1.2507508362e+02
1.2502578505e+02
1.2500872862e+02
1.2500291047e+02
1.2500095507e+02
1.2500030817e+02
1.2500009770e+02
1.2500003041e+02
1.2500000929e+02
1.2500000279e+02
1.2500000082e+02
1.2500000024e+02
1.2500000007e+02
1.2500000002e+02
1.2500000001e+02
1.2500000001e+02
1.2500000001e+02
1.2500000000e+02
9.9999999996e+02
9.9999999995e+02
9.9999999994e+02
9.9999999990e+02
9.9999999979e+02
9.9999999944e+02
9.9999999842e+02
9.9999999550e+02
9.9999998736e+02
9.9999996530e+02
9.9999990714e+02
9.9999975814e+02
9.9999938743e+02
9.9999849241e+02
9.9999639713e+02
9.9999164488e+02
9.9998121178e+02
9.9995906192e+02
9.9991363348e+02
9.9982372236e+02
9.9965219487e+02
9.9933714396e+02
9.9878066683e+02
9.9783649443e+02
9.9629915761e+02
9.9389879176e+02
9.9030624850e+02
9.8515200900e+02
9.7805910998e+02
9.6868566065e+02
9.5676843243e+02
9.4215756010e+02
9.2483459305e+02
9.0491108304e+02
8.8261032859e+02
8.5823859544e+02
8.3215310434e+02
8.0473275436e+02
7.7635513316e+02
7.4738100785e+02
7.1814583332e+02
6.8895697923e+02
6.6009517111e+02
6.3181878312e+02
6.0436986166e+02
5.7798091604e+02
5.5288144418e+02
5.2930274820e+02
5.0747874517e+02
4.8763924151e+02
4.6999095573e+02
4.5468161649e+02
4.4174560729e+02
4.3103713153e+02
4.2216856504e+02
4.1450401335e+02
4.0718883733e+02
3.9930649055e+02
3.9007989935e+02
3.7906892941e+02
3.6628677362e+02
3.5218494448e+02
3.3751721506e+02
3.2314324758e+02
3.0984484782e+02
2.9820687375e+02
2.8858293591e+02
2.8113143309e+02
2.7584795135e+02
2.7241343704e+02
2.6963098455e+02
2.6463809974e+02
2.5312134096e+02
2.3192643810e+02
2.0287006645e+02
1.7309113257e+02
1.5001427329e+02
1.3618650219e+02
1.2948493264e+02
1.2668318183e+02
1.2560893587e+02
1.2521553603e+02
1.2507508362e+02
1.2502578505e+02
1.2500872862e+02
1.2500291047e+02
1.2500095507e+02
1.2500030817e+02
1.2500009770e+02
1.2500003041e+02
1.2500000929e+02
1.2500000279e+02
1.2500000082e+02
1.2500000024e+02
1.2500000007e+02
1.2500000002e+02
1.2500000001e+02
1.2500000001e+02
1.2500000001e+02
1.2500000000e+02
9.9999999996e+02
9.9999999995e+02
9.9999999994e+02
9.9999999990e+02
9.9999999979e+02
9.9999999944e+02
9.9999999842e+02
9.9999999550e+02
9.9999998736e+02
9.9999996530e+02
9.9999990714e+02
9.9999975814e+02
9.9999938743e+02
9.9999849241e+02
9.9999639713e+02
9.9999164488e+02
9.9998121178e+02
9.9995906192e+02
9.9991363348e+02
9.9982372236e+02
9.9965219487e+02
9.9933714396e+02
9.9878066683e+02
9.9783649443e+02
9.9629915761e+02
9.9389879176e+02
9.9030624850e+02
9.8515200900e+02
9.7805910998e+02
9.6868566065e+02
9.5676843243e+02
9.4215756010e+02
9.2483459305e+02
9.0491108304e+02
8.8261032859e+02
8.5823859544e+02
8.3215310434e+02
8.0473275436e+02
7.7635513316e+02
7.4738100785e+02
7.1814583332e+02
6.8895697923e+02
6.6009517111e+02
6.3181878312e+02
6.0436986166e+02
5.7798091604e+02
5.5288144418e+02
5.2930274820e+02
5.0747874517e+02
4.8763924151e+02
4.6999095573e+02
4.5468161649e+02
4.4174560729e+02
4.3103713153e+02
4.2216856504e+02
4.1450401335e+02
4.0718883733e+02
3.9930649055e+02
3.9007989935e+02
3.7906892941e+02
3.6628677362e+02
3.5218494448e+02
3.3751721506e+02
3.2314324758e+02
3.0984484782e+02
2.9820687375e+02
2.8858293591e+02
2.8113143309e+02
2.7584795135e+02
2.7241343704e+02
2.6963098455e+02
2.6463809974e+02
2.5312134096e+02
2.3192643810e+02
2.0287006645e+02
1.7309113257e+02
1.5001427329e+02
1.3618650219e+02
1.2948493264e+02
1.2668318183e+02
1.2560893587e+02
1.2521553603e+02
1.2507508362e+02
1.2502578505e+02
1.2500872862e+02
1.2500291047e+02
1.2500095507e+02
1.2500030817e+02
1.2500009770e+02
1.2500003041e+02
1.2500000929e+02
1.2500000279e+02
1.2500000082e+02
1.2500000024e+02
1.2500000007e+02
1.2500000002e+02
1.2500000001e+02
1.2500000001e+02
1.2500000001e+02
1.2500000000e+02
9.9999999996e+02
9.9999999995e+02
9.9999999994e+02
9.9999999990e+02
9.9999999979e+02
9.9999999944e+02
9.9999999842e+02
9.9999999550e+02
9.9999998736e+02
9.9999996530e+02
9.9999990714e+02
9.9999975814e+02
9.9999938743e+02
9.9999849241e+02
9.9999639713e+02
9.9999164488e+02
9.9998121178e+02
9.9995906192e+02
9.9991363348e+02
9.9982372236e+02
9.9965219487e+02
9.9933714396e+02
9.9878066683e+02
9.9783649443e+02
9.9629915761e+02
9.9389879176e+02
9.9030624850e+02
9.8515200900e+02
9.7805910998e+02
9.6868566065e+02
9.5676843243e+02
9.4215756010e+02
9.2483459305e+02
9.0491108304e+02
8.8261032859e+02
8.5823859544e+02
8.3215310434e+02
8.0473275436e+02
7.7635513316e+02
7.4738100785e+02
7.1814583332e+02
6.8895697923e+02
6.6009517111e+02
6.3181878312e+02
6.0436986166e+02
5.7798091604e+02
5.5288144418e+02
5.2930274820e+02
5.0747874517e+02
4.8763924151e+02
4.6999095573e+02
4.5468161649e+02
4.4174560729e+02
4.3103713153e+02
4.2216856504e+02
4.1450401335e+02
4.0718883733e+02
3.9930649055e+02
3.9007989935e+02
3.7906892941e+02
3.6628677362e+02
3.5218494448e+02
3.3751721506e+02
3.2314324758e+02
3.0984484782e+02
2.9820687375e+02
2.8858293591e+02
2.8113143309e+02
2.7584795135e+02
2.7241343704e+02
2.6963098455e+02
2.6463809974e+02
2.5312134096e+02
2.3192643810e+02
2.0287006645e+02
1.7309113257e+02
1.5001427329e+02
1.3618650219e+02
1.2948493264e+02
1.2668318183e+02
1.2560893587e+02
1.2521553603e+02
1.2507508362e+02
1.2502578505e+02
1.2500872862e+02
1.2500291047e+02
1.2500095507e+02
1.2500030817e+02
1.2500009770e+02
1.2500003041e+02
1.2500000929e+02
1.2500000279e+02
1.2500000082e+02
1.2500000024e+02
1.2500000007e+02
1.2500000002e+02
1.2500000001e+02
1.2500000001e+02
1.2500000001e+02
1.2500000000e+02
9.9999999996e+02
9.9999999995e+02
9.9999999994e+02
9.9999999990e+02
9.9999999979e+02
9.9999999944e+02
9.9999999842e+02
9.9999999550e+02
9.9999998736e+02
9.9999996530e+02
9.9999990714e+02
9.9999975814e+02
9.9999938743e+02
9.9999849241e+02
9.9999639713e+02
9.9999164488e+02
9.9998121178e+02
9.9995906192e+02
9.9991363348e+02
9.9982372236e+02
9.9965219487e+02
9.9933714396e+02
9.9878066683e+02
9.9783649443e+02
9.9629915761e+02
9.9389879176e+02
9.9030624850e+02
9.8515200900e+02
9.7805910998e+02
9.6868566065e+02
9.5676843243e+02
9.4215756010e+02
9.2483459305e+02
9.0491108304e+02
8.8261032859e+02
8.5823859544e+02
8.3215310434e+02
8.0473275436e+02
7.7635513316e+02
7.4738100785e+02
7.1814583332e+02
6.8895697923e+02
6.6009517111e+02
6.3181878312e+02
6.0436986166e+02
5.7798091604e+02
5.5288144418e+02
5.2930274820e+02
5.0747874517e+02
4.8763924151e+02
4.6999095573e+02
4.5468161649e+02
4.4174560729e+02
4.3103713153e+02
4.2216856504e+02
4.1450401335e+02
4.0718883733e+02
3.9930649055e+02
3.9007989935e+02
3.7906892941e+02
3.6628677362e+02
3.5218494448e+02
3.3751721506e+02
3.2314324758e+02
3.0984484782e+02
2.9820687375e+02
2.8858293591e+02
2.8113143309e+02
2.7584795135e+02
2.7241343704e+02
2.6963098455e+02
2.6463809974e+02
2.5312134096e+02
2.3192643810e+02
2.0287006645e+02
1.7309113257e+02
1.5001427329e+02
1.3618650219e+02
1.2948493264e+02
1.2668318183e+02
1.2560893587e+02
1.2521553603e+02
1.2507508362e+02
1.2502578505e+02
1.2500872862e+02
1.2500291047e+02
1.2500095507e+02
1.2500030817e+02
1.2500009770e+02
1.2500003041e+02
1.2500000929e+02
1.2500000279e+02
1.2500000082e+02
1.2500000024e+02
1.2500000007e+02
1.2500000002e+02
1.2500000001e+02
1.2500000001e+02
1.2500000001e+02
1.2500000000e+02
9.9999999996e+02
9.9999999995e+02
9.9999999994e+02
9.9999999990e+02
9.9999999979e+02
9.9999999944e+02
9.9999999842e+02
9.9999999550e+02
9.9999998736e+02
9.9999996530e+02
9.9999990714e+02
9.9999975814e+02
9.9999938743e+02
9.9999849241e+02
9.9999639713e+02
9.9999164488e+02
9.9998121178e+02
9.9995906192e+02
9.9991363348e+02
9.9982372236e+02
9.9965219487e+02
9.9933714396e+02
9.9878066683e+02
9.9783649443e+02
9.9629915761e+02
9.9389879176e+02
9.9030624850e+02
9.8515200900e+02
9.7805910998e+02
9.6868566065e+02
9.5676843243e+02
9.4215756010e+02
9.2483459305e+02
9.0491108304e+02
8.8261032859e+02
8.5823859544e+02
8.3215310434e+02
8.0473275436e+02
7.7635513316e+02
7.4738100785e+02
7.1814583332e+02
6.8895697923e+02
6.6009517111e+02
6.3181878312e+02
6.0436986166e+02
5.7798091604e+02
5.5288144418e+02
5.2930274820e+02
5.0747874517e+02
4.8763924151e+02
4.6999095573e+02
4.5468161649e+02
4.4174560729e+02
4.3103713153e+02
4.2216856504e+02
4.1450401335e+02
4.0718883733e+02
3.9930649055e+02
3.9007989935e+02
3.7906892941e+02
3.6628677362e+02
3.5218494448e+02
3.3751721506e+02
3.2314324758e+02
3.0984484782e+02
2.9820687375e+02
2.8858293591e+02
2.8113143309e+02
2.7584795135e+02
2.7241343704e+02
2.6963098455e+02
2.6463809974e+02
2.5312134096e+02
2.3192643810e+02
2.0287006645e+02
1.7309113257e+02
1.5001427329e+02
1.3618650219e+02
1.2948493264e+02
1.2668318183e+02
1.2560893587e+02
1.2521553603e+02
1.2507508362e+02
1.2502578505e+02
1.2500872862e+02
1.2500291047e+02
1.2500095507e+02
1.2500030817e+02
1.2500009770e+02
1.2500003041e+02
1.2500000929e+02
1.2500000279e+02
1.2500000082e+02
1.2500000024e+02
1.2500000007e+02
1.2500000002e+02
1.2500000001e+02
1.2500000001e+02
1.2500000001e+02
1.2500000000e+02

SCALARS molarDensity float
LOOKUP_TABLE default
1.2977624132e+05
1.2977624132e+05
1.2977624132e+05
1.2977624131e+05
1.2977624130e+05
1.2977624125e+05
1.2977624112e+05
1.2977624074e+05
1.2977623969e+05
1.2977623682e+05
1.2977622928e+05
1.2977620994e+05
1.2977616183e+05
1.2977604568e+05
1.2977577376e+05
1.2977515703e+05
1.2977380306e+05
1.2977092854e+05
1.2976503300e+05
1.2975336468e+05
1.2973110448e+05
1.2969021836e+05
1.2961800085e+05
1.2949546971e+05
1.2929595991e+05
1.2898444945e+05
1.2851822269e+05
1.2784932486e+05
1.2692883509e+05
1.2571238407e+05
1.2416581098e+05
1.2226966689e+05
1.2002155733e+05
1.1743595909e+05
1.1454185100e+05
1.1137897908e+05
1.0799370209e+05
1.0443519213e+05
1.0075245112e+05
9.6992298037e+04
9.3198266972e+04
8.9410247200e+04
8.5664670225e+04
8.1995066873e+04
7.8432849018e+04
7.5008190843e+04
7.1750875725e+04
6.8690921185e+04
6.5858684102e+04
6.3283987886e+04
6.0993659693e+04
5.9006871188e+04
5.7328084537e+04
5.5938378802e+04
5.4787449578e+04
5.3792772868e+04
5.2843436819e+04
5.1820495481e+04
5.0623103154e+04
4.9194140863e+04
4.7535320729e+04
4.5705238346e+04
4.3801715553e+04
4.1936316081e+04
4.0210499745e+04
3.8700167213e+04
3.7451208734e+04
3.6484180705e+04
3.5798510304e+04
3.5352791947e+04
3.4991695720e+04
3.4343737897e+04
3.2849136229e+04
3.0098541401e+04
2.6327714702e+04
2.2463116591e+04
1.9468288533e+04
1.7673772373e+04
1.6804067866e+04
1.6440467177e+04
1.6301055574e+04
1.6250001622e+04
1.6231774236e+04
1.6225376453e+04
1.6223162934e+04
1.6222407875e+04
1.6222154111e+04
1.6222070158e+04
1.6222042845e+04
1.6222034113e+04
1.6222031372e+04
1.6222030528e+04
1.6222030273e+04
1.6222030197e+04
1.6222030175e+04
1.6222030169e+04
1.6222030167e+04
1.6222030167e+04
1.6222030167e+04
1.6222030167e+04
1.2977624132e+05
1.2977624132e+05
1.2977624132e+05
1.2977624131e+05
1.2977624130e+05
1.2977624125e+05
1.2977624112e+05
1.2977624074e+05
1.2977623969e+05
1.2977623682e+05
1.2977622928e+05
1.2977620994e+05
1.2977616183e+05
1.2977604568e+05
1.2977577376e+05
1.2977515703e+05
1.2977380306e+05
1.2977092854e+05
1.2976503300e+05
1.2975336468e+05
1.2973110448e+05
1.2969021836e+05
1.2961800085e+05
1.2949546971e+05
1.2929595991e+05
1.2898444945e+05
1.2851822269e+05
1.2784932486e+05
1.2692883509e+05
1.2571238407e+05
1.2416581098e+05
1.2226966689e+05
1.2002155733e+05
1.1743595909e+05
1.1454185100e+05
1.1137897908e+05
1.0799370209e+05
1.0443519213e+05
1.0075245112e+05
9.6992298037e+04
9.3198266972e+04
8.9410247200e+04
8.5664670225e+04
8.1995066873e+04
7.8432849018e+04
7.5008190843e+04
7.1750875725e+04
6.8690921185e+04
6.5858684102e+04
6.3283987886e+04
6.0993659693e+04
5.9006871188e+04
5.7328084537e+04
5.5938378802e+04
5.4787449578e+04
5.3792772868e+04
5.2843436819e+04
5.1820495481e+04
5.0623103154e+04
4.9194140863e+04
4.7535320729e+04
4.5705238346e+04
4.3801715553e+04
4.1936316081e+04
4.0210499745e+04
3.8700167213e+04
3.7451208734e+04
3.6484180705e+04
3.5798510304e+04