# vtk DataFile Version 2.0
Blank
ASCII
DATASET STRUCTURED_GRID
DIMENSIONS 101 11 2
POINTS 2222 float
0.0000000000e+00 0.0000000000e+00 0.0000000000e+00
1.0000000000e-02 0.0000000000e+00 0.0000000000e+00
2.0000000000e-02 0.0000000000e+00 0.0000000000e+00
3.0000000000e-02 0.0000000000e+00 0.0000000000e+00
4.0000000000e-02 0.0000000000e+00 0.0000000000e+00
5.0000000000e-02 0.0000000000e+00 0.0000000000e+00
6.0000000000e-02 0.0000000000e+00 0.0000000000e+00
7.0000000000e-02 0.0000000000e+00 0.0000000000e+00
8.0000000000e-02 0.0000000000e+00 0.0000000000e+00
9.0000000000e-02 0.0000000000e+00 0.0000000000e+00
1.0000000000e-01 0.0000000000e+00 0.0000000000e+00
1.1000000000e-01 0.0000000000e+00 0.0000000000e+00
1.2000000000e-01 0.0000000000e+00 0.0000000000e+00
1.3000000000e-01 0.0000000000e+00 0.0000000000e+00
1.4000000000e-01 0.0000000000e+00 0.0000000000e+00
1.5000000000e-01 0.0000000000e+00 0.0000000000e+00
1.6000000000e-01 0.0000000000e+00 0.0000000000e+00
1.7000000000e-01 0.0000000000e+00 0.0000000000e+00
1.8000000000e-01 0.0000000000e+00 0.0000000000e+00
1.9000000000e-01 0.0000000000e+00 0.0000000000e+00
2.0000000000e-01 0.0000000000e+00 0.0000000000e+00
2.1000000000e-01 0.0000000000e+00 0.0000000000e+00
2.2000000000e-01 0.0000000000e+00 0.0000000000e+00
2.3000000000e-01 0.0000000000e+00 0.0000000000e+00
2.4000000000e-01 0.0000000000e+00 0.0000000000e+00
2.5000000000e-01 0.0000000000e+00 0.0000000000e+00
2.6000000000e-01 0.0000000000e+00 0.0000000000e+00
2.7000000000e-01 0.0000000000e+00 0.0000000000e+00
2.8000000000e-01 0.0000000000e+00 0.0000000000e+00
2.9000000000e-01 0.0000000000e+00 0.0000000000e+00
3.0000000000e-01 0.0000000000e+00 0.0000000000e+00
3.1000000000e-01 0.0000000000e+00 0.0000000000e+00
3.2000000000e-01 0.0000000000e+00 0.0000000000e+00
3.3000000000e-01 0.0000000000e+00 0.0000000000e+00
3.4000000000e-01 0.0000000000e+00 0.0000000000e+00
3.5000000000e-01 0.0000000000e+00 0.0000000000e+00
3.6000000000e-01 0.0000000000e+00 0.0000000000e+00
3.7000000000e-01 0.0000000000e+00 0.0000000000e+00
3.8000000000e-01 0.0000000000e+00 0.0000000000e+00
3.9000000000e-01 0.0000000000e+00 0.0000000000e+00
4.0000000000e-01 0.0000000000e+00 0.0000000000e+00
4.1000000000e-01 0.0000000000e+00 0.0000000000e+00
4.2000000000e-01 0.0000000000e+00 0.0000000000e+00
4.3000000000e-01 0.0000000000e+00 0.0000000000e+00
4.4000000000e-01 0.0000000000e+00 0.0000000000e+00
4.5000000000e-01 0.0000000000e+00 0.0000000000e+00
4.6000000000e-01 0.0000000000e+00 0.0000000000e+00
4.7000000000e-01 0.0000000000e+00 0.0000000000e+00
4.8000000000e-01 0.0000000000e+00 0.0000000000e+00
4.9000000000e-01 0.0000000000e+00 0.0000000000e+00
5.0000000000e-01 0.0000000000e+00 0.0000000000e+00
5.1000000000e-01 0.0000000000e+00 0.0000000000e+00
5.2000000000e-01 0.0000000000e+00 0.0000000000e+00
5.3000000000e-01 0.0000000000e+00 0.0000000000e+00
5.4000000000e-01 0.0000000000e+00 0.0000000000e+00
5.5000000000e-01 0.0000000000e+00 0.0000000000e+00
5.6000000000e-01 0.0000000000e+00 0.0000000000e+00
5.7000000000e-01 0.0000000000e+00 0.0000000000e+00
5.8000000000e-01 0.0000000000e+00 0.0000000000e+00
5.9000000000e-01 0.0000000000e+00 0.0000000000e+00
6.0000000000e-01 0.0000000000e+00 0.0000000000e+00
6.1000000000e-01 0.0000000000e+00 0.0000000000e+00
6.2000000000e-01 0.0000000000e+00 0.0000000000e+00
6.3000000000e-01 0.0000000000e+00 0.0000000000e+00
6.4000000000e-01 0.0000000000e+00 0.0000000000e+00
6.5000000000e-01 0.0000000000e+00 0.0000000000e+00
6.6000000000e-01 0.0000000000e+00 0.0000000000e+00
6.7000000000e-01 0.0000000000e+00 0.0000000000e+00
6.8000000000e-01 0.0000000000e+00 0.0000000000e+00
6.9000000000e-01 0.0000000000e+00 0.0000000000e+00
7.0000000000e-01 0.0000000000e+00 0.0000000000e+00
7.1000000000e-01 0.0000000000e+00 0.0000000000e+00
7.2000000000e-01 0.0000000000e+00 0.0000000000e+00
7.3000000000e-01 0.0000000000e+00 0.0000000000e+00
7.4000000000e-01 0.0000000000e+00 0.0000000000e+00
7.5000000000e-01 0.0000000000e+00 0.0000000000e+00
7.6000000000e-01 0.0000000000e+00 0.0000000000e+00
7.7000000000e-01 0.0000000000e+00 0.0000000000e+00
7.8000000000e-01 0.0000000000e+00 0.0000000000e+00
7.9000000000e-01 0.0000000000e+00 0.0000000000e+00
8.0000000000e-01 0.0000000000e+00 0.0000000000e+00
8.1000000000e-01 0.0000000000e+00 0.0000000000e+00
8.2000000000e-01 0.0000000000e+00 0.0000000000e+00
8.3000000000e-01 0.0000000000e+00 0.0000000000e+00
8.4000000000e-01 0.0000000000e+00 0.0000000000e+00
8.5000000000e-01 0.0000000000e+00 0.0000000000e+00
8.6000000000e-01 0.0000000000e+00 0.0000000000e+00
8.7000000000e-01 0.0000000000e+00 0.0000000000e+00
8.8000000000e-01 0.0000000000e+00 0.0000000000e+00
8.9000000000e-01 0.0000000000e+00 0.0000000000e+00
9.0000000000e-01 0.0000000000e+00 0.0000000000e+00
9.1000000000e-01 0.0000000000e+00 0.0000000000e+00
9.2000000000e-01 0.0000000000e+00 0.0000000000e+00
9.3000000000e-01 0.0000000000e+00 0.0000000000e+00
9.4000000000e-01 0.0000000000e+00 0.0000000000e+00
9.5000000000e-01 0.0000000000e+00 0.0000000000e+00
9.6000000000e-01 0.0000000000e+00 0.0000000000e+00
9.7000000000e-01 0.0000000000e+00 0.0000000000e+00
9.8000000000e-01 0.0000000000e+00 0.0000000000e+00
9.9000000000e-01 0.0000000000e+00 0.0000000000e+00
1.0000000000e+00 0.0000000000e+00 0.0000000000e+00
0.0000000000e+00 1.0000000000e-03 0.0000000000e+00
1.0000000000e-02 1.0000000000e-03 0.0000000000e+00
2.0000000000e-02 1.0000000000e-03 0.0000000000e+00
3.0000000000e-02 1.0000000000e-03 0.0000000000e+00
4.0000000000e-02 1.0000000000e-03 0.0000000000e+00
5.0000000000e-02 1.0000000000e-03 0.0000000000e+00
6.0000000000e-02 1.0000000000e-03 0.0000000000e+00
7.0000000000e-02 1.0000000000e-03 0.0000000000e+00
8.0000000000e-02 1.0000000000e-03 0.0000000000e+00
9.0000000000e-02 1.0000000000e-03 0.0000000000e+00
1.0000000000e-01 1.0000000000e-03 0.0000000000e+00
1.1000000000e-01 1.0000000000e-03 0.0000000000e+00
1.2000000000e-01 1.0000000000e-03 0.0000000000e+00
1.3000000000e-01 1.0000000000e-03 0.0000000000e+00
1.4000000000e-01 1.0000000000e-03 0.0000000000e+00
1.5000000000e-01 1.0000000000e-03 0.0000000000e+00
1.6000000000e-01 1.0000000000e-03 0.0000000000e+00
1.7000000000e-01 1.0000000000e-03 0.0000000000e+00
1.8000000000e-01 1.0000000000e-03 0.0000000000e+00
1.9000000000e-01 1.0000000000e-03 0.0000000000e+00
2.0000000000e-01 1.0000000000e-03 0.0000000000e+00
2.1000000000e-01 1.0000000000e-03 0.0000000000e+00
2.2000000000e-01 1.0000000000e-03 0.0000000000e+00
2.3000000000e-01 1.0000000000e-03 0.0000000000e+00
2.4000000000e-01 1.0000000000e-03 0.0000000000e+00
2.5000000000e-01 1.0000000000e-03 0.0000000000e+00
2.6000000000e-01 1.0000000000e-03 0.0000000000e+00
2.7000000000e-01 1.0000000000e-03 0.0000000000e+00
2.8000000000e-01 1.0000000000e-03 0.0000000000e+00
2.9000000000e-01 1.0000000000e-03 0.0000000000e+00
3.0000000000e-01 1.0000000000e-03 0.0000000000e+00
3.1000000000e-01 1.0000000000e-03 0.0000000000e+00
3.2000000000e-01 1.0000000000e-03 0.0000000000e+00
3.3000000000e-01 1.0000000000e-03 0.0000000000e+00
3.4000000000e-01 1.0000000000e-03 0.0000000000e+00
3.5000000000e-01 1.0000000000e-03 0.0000000000e+00
3.6000000000e-01 1.0000000000e-03 0.0000000000e+00
3.7000000000e-01 1.0000000000e-03 0.0000000000e+00
3.8000000000e-01 1.0000000000e-03 0.0000000000e+00
3.9000000000e-01 1.0000000000e-03 0.0000000000e+00
4.0000000000e-01 1.0000000000e-03 0.0000000000e+00
4.1000000000e-01 1.0000000000e-03 0.0000000000e+00
4.2000000000e-01 1.0000000000e-03 0.0000000000e+00
4.3000000000e-01 1.0000000000e-03 0.0000000000e+00
4.4000000000e-01 1.0000000000e-03 0.0000000000e+00
4.5000000000e-01 1.0000000000e-03 0.0000000000e+00
4.6000000000e-01 1.0000000000e-03 0.0000000000e+00
4.7000000000e-01 1.0000000000e-03 0.0000000000e+00
4.8000000000e-01 1.0000000000e-03 0.0000000000e+00
4.9000000000e-01 1.0000000000e-03 0.0000000000e+00
5.0000000000e-01 1.0000000000e-03 0.0000000000e+00
5.1000000000e-01 1.0000000000e-03 0.0000000000e+00
5.2000000000e-01 1.0000000000e-03 0.0000000000e+00
5.3000000000e-01 1.0000000000e-03 0.0000000000e+00
5.4000000000e-01 1.0000000000e-03 0.0000000000e+00
5.5000000000e-01 1.0000000000e-03 0.0000000000e+00
5.6000000000e-01 1.0000000000e-03 0.0000000000e+00
5.7000000000e-01 1.0000000000e-03 0.0000000000e+00
5.8000000000e-01 1.0000000000e-03 0.0000000000e+00
5.9000000000e-01 1.0000000000e-03 0.0000000000e+00
6.0000000000e-01 1.0000000000e-03 0.0000000000e+00
6.1000000000e-01 1.0000000000e-03 0.0000000000e+00
6.2000000000e-01 1.0000000000e-03 0.0000000000e+00
6.3000000000e-01 1.0000000000e-03 0.0000000000e+00
6.4000000000e-01 1.0000000000e-03 0.0000000000e+00
6.5000000000e-01 1.0000000000e-03 0.0000000000e+00
6.6000000000e-01 1.0000000000e-03 0.0000000000e+00
6.7000000000e-01 1.0000000000e-03 0.0000000000e+00
6.8000000000e-01 1.0000000000e-03 0.0000000000e+00
6.9000000000e-01 1.0000000000e-03 0.0000000000e+00
7.0000000000e-01 1.0000000000e-03 0.0000000000e+00
7.1000000000e-01 1.0000000000e-03 0.0000000000e+00
7.2000000000e-01 1.0000000000e-03 0.0000000000e+00
7.3000000000e-01 1.0000000000e-03 0.0000000000e+00
7.4000000000e-01 1.0000000000e-03 0.0000000000e+00
7.5000000000e-01 1.0000000000e-03 0.0000000000e+00
7.6000000000e-01 1.0000000000e-03 0.0000000000e+00
7.7000000000e-01 1.0000000000e-03 0.0000000000e+00
7.8000000000e-01 1.0000000000e-03 0.0000000000e+00
7.9000000000e-01 1.0000000000e-03 0.0000000000e+00
8.0000000000e-01 1.0000000000e-03 0.0000000000e+00
8.1000000000e-01 1.0000000000e-03 0.0000000000e+00
8.2000000000e-01 1.0000000000e-03 0.0000000000e+00
8.3000000000e-01 1.0000000000e-03 0.0000000000e+00
8.4000000000e-01 1.0000000000e-03 0.0000000000e+00
8.5000000000e-01 1.0000000000e-03 0.0000000000e+00
8.6000000000e-01 1.0000000000e-03 0.0000000000e+00
8.7000000000e-01 1.0000000000e-03 0.0000000000e+00
8.8000000000e-01 1.0000000000e-03 0.0000000000e+00
8.9000000000e-01 1.0000000000e-03 0.0000000000e+00
9.0000000000e-01 1.0000000000e-03 0.0000000000e+00
9.1000000000e-01 1.0000000000e-03 0.0000000000e+00
9.2000000000e-01 1.0000000000e-03 0.0000000000e+00
[...]
CELL_DATA 1000

SCALARS massDensity float
LOOKUP_TABLE default
9.9999999996e+02
9.9999999996e+02
9.9999999996e+02
9.9999999996e+02
9.9999999996e+02
9.9999999996e+02
9.9999999996e+02
9.9999999996e+02
9.9999999995e+02
9.9999999993e+02
9.9999999985e+02
9.9999999960e+02
9.9999999877e+02
9.9999999612e+02
9.9999998790e+02
9.9999996322e+02
9.9999989159e+02
9.9999969054e+02
9.9999914570e+02
9.9999772124e+02
9.9999413234e+02
9.9998542903e+02
9.9996513968e+02
9.9991973326e+02
9.9982232602e+02
9.9962233508e+02
9.9922999093e+02
9.9849573065e+02
9.9718690898e+02
9.9496785446e+02
9.9139282912e+02
9.8592247907e+02
9.7797030742e+02
9.6697606835e+02
9.5249117698e+02
9.3425360714e+02
9.1223147663e+02
8.8662537834e+02
8.5783369630e+02
8.2639548230e+02
7.9292822337e+02
7.5807407969e+02
7.2246165466e+02
6.8668449221e+02
6.5129385312e+02
6.1680178045e+02
5.8369005920e+02
5.5242026571e+02
5.2343866990e+02
4.9716670777e+02
4.7396360520e+02
4.5404598751e+02
4.3735825739e+02
4.2342207113e+02
4.1130675520e+02
3.9970302279e+02
3.8733499664e+02
3.7340097067e+02
3.5784652263e+02
3.4133015897e+02
3.2493776237e+02
3.0982992748e+02
2.9697447427e+02
2.8695577256e+02
2.7964501327e+02
2.7349244375e+02
2.6487034376e+02
2.4909589861e+02
2.2392363152e+02
1.9299930426e+02
1.6432896691e+02
1.4414785255e+02
1.3307499640e+02
1.2808433748e+02
1.2610979658e+02
1.2538512776e+02
1.2513027472e+02
1.2504311156e+02
1.2501396607e+02
1.2500442680e+02
1.2500137183e+02
1.2500041531e+02
1.2500012275e+02
1.2500003541e+02
1.2500000996e+02
1.2500000274e+02
1.2500000074e+02
1.2500000020e+02
1.2500000005e+02
1.2500000002e+02
1.2500000001e+02
1.2500000001e+02
1.2500000000e+02
1.2500000000e+02
1.2500000000e+02
1.2500000000e+02
1.2500000000e+02
1.2500000000e+02
1.2500000000e+02
1.2500000000e+02
9.9999999996e+02
9.9999999996e+02
9.9999999996e+02
9.9999999996e+02
9.9999999996e+02
9.9999999996e+02
9.9999999996e+02
9.9999999996e+02
9.9999999995e+02
9.9999999993e+02
9.9999999985e+02
9.9999999960e+02
9.9999999877e+02
9.9999999612e+02
9.9999998790e+02
9.9999996322e+02
9.9999989159e+02
9.9999969054e+02
9.9999914570e+02
9.9999772124e+02
9.9999413234e+02
9.9998542903e+02
9.9996513968e+02
9.9991973326e+02
9.9982232602e+02
9.9962233508e+02
9.9922999093e+02
9.9849573065e+02
9.9718690898e+02
9.9496785446e+02
9.9139282912e+02
9.8592247907e+02
9.7797030742e+02
9.6697606835e+02
9.5249117698e+02
9.3425360714e+02
9.1223147663e+02
8.8662537834e+02
8.5783369630e+02
8.2639548230e+02
7.9292822337e+02
7.5807407969e+02
7.2246165466e+02
6.8668449221e+02
6.5129385312e+02
6.1680178045e+02
5.8369005920e+02
5.5242026571e+02
5.2343866990e+02
4.9716670777e+02
4.7396360520e+02
4.5404598751e+02
4.3735825739e+02
4.2342207113e+02
4.1130675520e+02
3.9970302279e+02
3.8733499664e+02
3.7340097067e+02
3.5784652263e+02
3.4133015897e+02
3.2493776237e+02
3.0982992748e+02
2.9697447427e+02
2.8695577256e+02
2.7964501327e+02
2.7349244375e+02
2.6487034376e+02
2.4909589861e+02
2.2392363152e+02
1.9299930426e+02
1.6432896691e+02
1.4414785255e+02
1.3307499640e+02
1.2808433748e+02
1.2610979658e+02
1.2538512776e+02
1.2513027472e+02
1.2504311156e+02
1.2501396607e+02
1.2500442680e+02
1.2500137183e+02
1.2500041531e+02
1.2500012275e+02
1.2500003541e+02
1.2500000996e+02
1.2500000274e+02
1.2500000074e+02
1.2500000020e+02
1.2500000005e+02
1.2500000002e+02
1.2500000001e+02
1.2500000001e+02
1.2500000000e+02
1.2500000000e+02
1.2500000000e+02
1.2500000000e+02
1.2500000000e+02
1.2500000000e+02
1.2500000000e+02
1.2500000000e+02
9.9999999996e+02
9.9999999996e+02
9.9999999996e+02
9.9999999996e+02
9.9999999996e+02
9.9999999996e+02
9.9999999996e+02
9.9999999996e+02
9.9999999995e+02
9.9999999993e+02
9.9999999985e+02
9.9999999960e+02
9.9999999877e+02
9.9999999612e+02
9.9999998790e+02
9.9999996322e+02
9.9999989159e+02
9.9999969054e+02
9.9999914570e+02
9.9999772124e+02
9.9999413234e+02
9.9998542903e+02
9.9996513968e+02
9.9991973326e+02
9.9982232602e+02
9.9962233508e+02
9.9922999093e+02
9.9849573065e+02
9.9718690898e+02
9.9496785446e+02
9.9139282912e+02
9.8592247907e+02
9.7797030742e+02
9.6697606835e+02
9.5249117698e+02
9.3425360714e+02
9.1223147663e+02
8.8662537834e+02
8.5783369630e+02
8.2639548230e+02
7.9292822337e+02
7.5807407969e+02
7.2246165466e+02
6.8668449221e+02
6.5129385312e+02
6.1680178045e+02
5.8369005920e+02
5.5242026571e+02
5.2343866990e+02
4.9716670777e+02
4.7396360520e+02
4.5404598751e+02
4.3735825739e+02
4.2342207113e+02
4.1130675520e+02
3.9970302279e+02
3.8733499664e+02
3.7340097067e+02
3.5784652263e+02
3.4133015897e+02
3.2493776237e+02
3.0982992748e+02
2.9697447427e+02
2.8695577256e+02
2.7964501327e+02
2.7349244375e+02
2.6487034376e+02
2.4909589861e+02
2.2392363152e+02
1.9299930426e+02
1.6432896691e+02
1.4414785255e+02
1.3307499640e+02
1.2808433748e+02
1.2610979658e+02
1.2538512776e+02
1.2513027472e+02
1.2504311156e+02
1.2501396607e+02
1.2500442680e+02
1.2500137183e+02
1.2500041531e+02
1.2500012275e+02
1.2500003541e+02
1.2500000996e+02
1.2500000274e+02
1.2500000074e+02
1.2500000020e+02
1.2500000005e+02
1.2500000002e+02
1.2500000001e+02
1.2500000001e+02
1.2500000000e+02
1.2500000000e+02
1.2500000000e+02
1.2500000000e+02
1.2500000000e+02
1.2500000000e+02
1.2500000000e+02
1.2500000000e+02
9.9999999996e+02
9.9999999996e+02
9.9999999996e+02
9.9999999996e+02
9.9999999996e+02
9.9999999996e+02
9.9999999996e+02
9.9999999996e+02
9.9999999995e+02
9.9999999993e+02
9.9999999985e+02
9.9999999960e+02
9.9999999877e+02
9.9999999612e+02
9.9999998790e+02
9.9999996322e+02
9.9999989159e+02
9.9999969054e+02
9.9999914570e+02
9.9999772124e+02
9.9999413234e+02
9.9998542903e+02
9.9996513968e+02
9.9991973326e+02
9.9982232602e+02
9.9962233508e+02
9.9922999093e+02
9.9849573065e+02
9.9718690898e+02
9.9496785446e+02
9.9139282912e+02
9.8592247907e+02
9.7797030742e+02
9.6697606835e+02
9.5249117698e+02
9.3425360714e+02
9.1223147663e+02
8.8662537834e+02
8.5783369630e+02
8.2639548230e+02
7.9292822337e+02
7.5807407969e+02
7.2246165466e+02
6.8668449221e+02
6.5129385312e+02
6.1680178045e+02
5.8369005920e+02
5.5242026571e+02
5.2343866990e+02
4.9716670777e+02
4.7396360520e+02
4.5404598751e+02
4.3735825739e+02
4.2342207113e+02
4.1130675520e+02
3.9970302279e+02
3.8733499664e+02
3.7340097067e+02
3.5784652263e+02
3.4133015897e+02
3.2493776237e+02
3.0982992748e+02
2.9697447427e+02
2.8695577256e+02
2.7964501327e+02
2.7349244375e+02
2.6487034376e+02
2.4909589861e+02
2.2392363152e+02
1.9299930426e+02
1.6432896691e+02
1.4414785255e+02
1.3307499640e+02
1.2808433748e+02
1.2610979658e+02
1.2538512776e+02
1.2513027472e+02
1.2504311156e+02
1.2501396607e+02
1.2500442680e+02
1.2500137183e+02
1.2500041531e+02
1.2500012275e+02
1.2500003541e+02
1.2500000996e+02
1.2500000274e+02
1.2500000074e+02
1.2500000020e+02
1.2500000005e+02
1.2500000002e+02
1.2500000001e+02
1.2500000001e+02
1.2500000000e+02
1.2500000000e+02
1.2500000000e+02
1.2500000000e+02
1.2500000000e+02
1.2500000000e+02
1.2500000000e+02
1.2500000000e+02
9.9999999996e+02
9.9999999996e+02
9.9999999996e+02
9.9999999996e+02
9.9999999996e+02
9.9999999996e+02
9.9999999996e+02
9.9999999996e+02
9.9999999995e+02
9.9999999993e+02
9.9999999985e+02
9.9999999960e+02
9.9999999877e+02
9.9999999612e+02
9.9999998790e+02
9.9999996322e+02
9.9999989159e+02
9.9999969054e+02
9.9999914570e+02
9.9999772124e+02
9.9999413234e+02
9.9998542903e+02
9.9996513968e+02
9.9991973326e+02
9.9982232602e+02
9.9962233508e+02
9.9922999093e+02
9.9849573065e+02
9.9718690898e+02
9.9496785446e+02
9.9139282912e+02
9.8592247907e+02
9.7797030742e+02
9.6697606835e+02
9.5249117698e+02
9.3425360714e+02
9.1223147663e+02
8.8662537834e+02
8.5783369630e+02
8.2639548230e+02
7.9292822337e+02
7.5807407969e+02
7.2246165466e+02
6.8668449221e+02
6.5129385312e+02
6.1680178045e+02
5.8369005920e+02
5.5242026571e+02
5.2343866990e+02
4.9716670777e+02
4.7396360520e+02
4.5404598751e+02
4.3735825739e+02
4.2342207113e+02
4.1130675520e+02
3.9970302279e+02
3.8733499664e+02
3.7340097067e+02
3.5784652263e+02
3.4133015897e+02
3.2493776237e+02
3.0982992748e+02
2.9697447427e+02
2.8695577256e+02
2.7964501327e+02
2.7349244375e+02
2.6487034376e+02
2.4909589861e+02
2.2392363152e+02
1.9299930426e+02
1.6432896691e+02
1.4414785255e+02
1.3307499640e+02
1.2808433748e+02
1.2610979658e+02
1.2538512776e+02
1.2513027472e+02
1.2504311156e+02
1.2501396607e+02
1.2500442680e+02
1.2500137183e+02
1.2500041531e+02
1.2500012275e+02
1.2500003541e+02
1.2500000996e+02
1.2500000274e+02
1.2500000074e+02
1.2500000020e+02
1.2500000005e+02
1.2500000002e+02
1.2500000001e+02
1.2500000001e+02
1.2500000000e+02
1.2500000000e+02
1.2500000000e+02
1.2500000000e+02
1.2500000000e+02
1.2500000000e+02
1.2500000000e+02
1.2500000000e+02
9.9999999996e+02
9.9999999996e+02
9.9999999996e+02
9.9999999996e+02
9.9999999996e+02
9.9999999996e+02
9.9999999996e+02
9.9999999996e+02
9.9999999995e+02
9.9999999993e+02
9.9999999985e+02
9.9999999960e+02
9.9999999877e+02
9.9999999612e+02
9.9999998790e+02
9.9999996322e+02
9.9999989159e+02
9.9999969054e+02
9.9999914570e+02
9.9999772124e+02
9.9999413234e+02
9.9998542903e+02
9.9996513968e+02
9.9991973326e+02
9.9982232602e+02
9.9962233508e+02
9.9922999093e+02
9.9849573065e+02
9.9718690898e+02
9.9496785446e+02
9.9139282912e+02
9.8592247907e+02
9.7797030742e+02
9.6697606835e+02
9.5249117698e+02
9.3425360714e+02
9.1223147663e+02
8.8662537834e+02
8.5783369630e+02
8.2639548230e+02
7.9292822337e+02
7.5807407969e+02
7.2246165466e+02
6.8668449221e+02
6.5129385312e+02
6.1680178045e+02
5.8369005920e+02
5.5242026571e+02
5.2343866990e+02
4.9716670777e+02
4.7396360520e+02
4.5404598751e+02
4.3735825739e+02
4.2342207113e+02
4.1130675520e+02
3.9970302279e+02
3.8733499664e+02
3.7340097067e+02
3.5784652263e+02
3.4133015897e+02
3.2493776237e+02
3.0982992748e+02
2.9697447427e+02
2.8695577256e+02
2.7964501327e+02
2.7349244375e+02
2.6487034376e+02
2.4909589861e+02
2.2392363152e+02
1.9299930426e+02
1.6432896691e+02
1.4414785255e+02
1.3307499640e+02
1.2808433748e+02
1.2610979658e+02
1.2538512776e+02
1.2513027472e+02
1.2504311156e+02
1.2501396607e+02
1.2500442680e+02
1.2500137183e+02
1.2500041531e+02
1.2500012275e+02
1.2500003541e+02
1.2500000996e+02
1.2500000274e+02
1.2500000074e+02
1.2500000020e+02
1.2500000005e+02
1.2500000002e+02
1.2500000001e+02
1.2500000001e+02
1.2500000000e+02
1.2500000000e+02
1.2500000000e+02
1.2500000000e+02
1.2500000000e+02
1.2500000000e+02
1.2500000000e+02
1.2500000000e+02
9.9999999996e+02
9.9999999996e+02
9.9999999996e+02
9.9999999996e+02
9.9999999996e+02
9.9999999996e+02
9.9999999996e+02
9.9999999996e+02
9.9999999995e+02
9.9999999993e+02
9.9999999985e+02
9.9999999960e+02
9.9999999877e+02
9.9999999612e+02
9.9999998790e+02
9.9999996322e+02
9.9999989159e+02
9.9999969054e+02
9.9999914570e+02
9.9999772124e+02
9.9999413234e+02
9.9998542903e+02
9.9996513968e+02
9.9991973326e+02
9.9982232602e+02
9.9962233508e+02
9.9922999093e+02
9.9849573065e+02
9.9718690898e+02
9.9496785446e+02
9.9139282912e+02
9.8592247907e+02
9.7797030742e+02
9.6697606835e+02
9.5249117698e+02
9.3425360714e+02
9.1223147663e+02
8.8662537834e+02
8.5783369630e+02
8.2639548230e+02
7.9292822337e+02
7.5807407969e+02
7.2246165466e+02
6.8668449221e+02
6.5129385312e+02
6.1680178045e+02
5.8369005920e+02
5.5242026571e+02
5.2343866990e+02
4.9716670777e+02
4.7396360520e+02
4.5404598751e+02
4.3735825739e+02
4.2342207113e+02
4.1130675520e+02
3.9970302279e+02
3.8733499664e+02
3.7340097067e+02
3.5784652263e+02
3.4133015897e+02
3.2493776237e+02
3.0982992748e+02
2.9697447427e+02
2.8695577256e+02
2.7964501327e+02
2.7349244375e+02
2.6487034376e+02
2.4909589861e+02
2.2392363152e+02
1.9299930426e+02
1.6432896691e+02
1.4414785255e+02
1.3307499640e+02
1.2808433748e+02
1.2610979658e+02
1.2538512776e+02
1.2513027472e+02
1.2504311156e+02
1.2501396607e+02
1.2500442680e+02
1.2500137183e+02
1.2500041531e+02
1.2500012275e+02
1.2500003541e+02
1.2500000996e+02
1.2500000274e+02
1.2500000074e+02
1.2500000020e+02
1.2500000005e+02
1.2500000002e+02
1.2500000001e+02
1.2500000001e+02
1.2500000000e+02
1.2500000000e+02
1.2500000000e+02
1.2500000000e+02
1.2500000000e+02
1.2500000000e+02
1.2500000000e+02
1.2500000000e+02
9.9999999996e+02
9.9999999996e+02
9.9999999996e+02
9.9999999996e+02
9.9999999996e+02
9.9999999996e+02
9.9999999996e+02
9.9999999996e+02
9.9999999995e+02
9.9999999993e+02
9.9999999985e+02
9.9999999960e+02
9.9999999877e+02
9.9999999612e+02
9.9999998790e+02
9.9999996322e+02
9.9999989159e+02
9.9999969054e+02
9.9999914570e+02
9.9999772124e+02
9.9999413234e+02
9.9998542903e+02
9.9996513968e+02
9.9991973326e+02
9.9982232602e+02
9.9962233508e+02
9.9922999093e+02
9.9849573065e+02
9.9718690898e+02
9.9496785446e+02
9.9139282912e+02
9.8592247907e+02
9.7797030742e+02
9.6697606835e+02
9.5249117698e+02
9.3425360714e+02
9.1223147663e+02
8.8662537834e+02
8.5783369630e+02
8.2639548230e+02
7.9292822337e+02
7.5807407969e+02
7.2246165466e+02
6.8668449221e+02
6.5129385312e+02
6.1680178045e+02
5.8369005920e+02
5.5242026571e+02
5.2343866990e+02
4.9716670777e+02
4.7396360520e+02
4.5404598751e+02
4.3735825739e+02
4.2342207113e+02
4.1130675520e+02
3.9970302279e+02
3.8733499664e+02
3.7340097067e+02
3.5784652263e+02
3.4133015897e+02
3.2493776237e+02
3.0982992748e+02
2.9697447427e+02
2.8695577256e+02
2.7964501327e+02
2.7349244375e+02
2.6487034376e+02
2.4909589861e+02
2.2392363152e+02
1.9299930426e+02
1.6432896691e+02
1.4414785255e+02
1.3307499640e+02
1.2808433748e+02
1.2610979658e+02
1.2538512776e+02
1.2513027472e+02
1.2504311156e+02
1.2501396607e+02
1.2500442680e+02
1.2500137183e+02
1.2500041531e+02
1.2500012275e+02
1.2500003541e+02
1.2500000996e+02
1.2500000274e+02
1.2500000074e+02
1.2500000020e+02
1.2500000005e+02
1.2500000002e+02
1.2500000001e+02
1.2500000001e+02
1.2500000000e+02
1.2500000000e+02
1.2500000000e+02
1.2500000000e+02
1.2500000000e+02
1.2500000000e+02
1.2500000000e+02
1.2500000000e+02
9.9999999996e+02
9.9999999996e+02
9.9999999996e+02
9.9999999996e+02
9.9999999996e+02
9.9999999996e+02
9.9999999996e+02
9.9999999996e+02
9.9999999995e+02
9.9999999993e+02
9.9999999985e+02
9.9999999960e+02
9.9999999877e+02
9.9999999612e+02
9.9999998790e+02
9.9999996322e+02
9.9999989159e+02
9.9999969054e+02
9.9999914570e+02
9.9999772124e+02
9.9999413234e+02
9.9998542903e+02
9.9996513968e+02
9.9991973326e+02
9.9982232602e+02
9.9962233508e+02
9.9922999093e+02
9.9849573065e+02
9.9718690898e+02
9.9496785446e+02
9.9139282912e+02
9.8592247907e+02
9.7797030742e+02
9.6697606835e+02
9.5249117698e+02
9.3425360714e+02
9.1223147663e+02
8.8662537834e+02
8.5783369630e+02
8.2639548230e+02
7.9292822337e+02
7.5807407969e+02
7.2246165466e+02
6.8668449221e+02
6.5129385312e+02
6.1680178045e+02
5.8369005920e+02
5.5242026571e+02
5.2343866990e+02
4.9716670777e+02
4.7396360520e+02
4.5404598751e+02
4.3735825739e+02
4.2342207113e+02
4.1130675520e+02
3.9970302279e+02
3.8733499664e+02
3.7340097067e+02
3.5784652263e+02
3.4133015897e+02
3.2493776237e+02
3.0982992748e+02
2.9697447427e+02
2.8695577256e+02
2.7964501327e+02
2.7349244375e+02
2.6487034376e+02
2.4909589861e+02
2.2392363152e+02
1.9299930426e+02
1.6432896691e+02
1.4414785255e+02
1.3307499640e+02
1.2808433748e+02
1.2610979658e+02
1.2538512776e+02
1.2513027472e+02
1.2504311156e+02
1.2501396607e+02
1.2500442680e+02
1.2500137183e+02
1.2500041531e+02
1.2500012275e+02
1.2500003541e+02
1.2500000996e+02
1.2500000274e+02
1.2500000074e+02
1.2500000020e+02
1.2500000005e+02
1.2500000002e+02
1.2500000001e+02
1.2500000001e+02
1.2500000000e+02
1.2500000000e+02
1.2500000000e+02
1.2500000000e+02
1.2500000000e+02
1.2500000000e+02
1.2500000000e+02
1.2500000000e+02
9.9999999996e+02
9.9999999996e+02
9.9999999996e+02
9.9999999996e+02
9.9999999996e+02
9.9999999996e+02
9.9999999996e+02
9.9999999996e+02
9.9999999995e+02
9.9999999993e+02
9.9999999985e+02
9.9999999960e+02
9.9999999877e+02
9.9999999612e+02
9.9999998790e+02
9.9999996322e+02
9.9999989159e+02
9.9999969054e+02
9.9999914570e+02
9.9999772124e+02
9.9999413234e+02
9.9998542903e+02
9.9996513968e+02
9.9991973326e+02
9.9982232602e+02
9.9962233508e+02
9.9922999093e+02
9.9849573065e+02
9.9718690898e+02
9.9496785446e+02
9.9139282912e+02
9.8592247907e+02
9.7797030742e+02
9.6697606835e+02
9.5249117698e+02
9.3425360714e+02
9.1223147663e+02
8.8662537834e+02
8.5783369630e+02
8.2639548230e+02
7.9292822337e+02
7.5807407969e+02
7.2246165466e+02
6.8668449221e+02
6.5129385312e+02
6.1680178045e+02
5.8369005920e+02
5.5242026571e+02
5.2343866990e+02
4.9716670777e+02
4.7396360520e+02
4.5404598751e+02
4.3735825739e+02
4.2342207113e+02
4.1130675520e+02
3.9970302279e+02
3.8733499664e+02
3.7340097067e+02
3.5784652263e+02
3.4133015897e+02
3.2493776237e+02
3.0982992748e+02
2.9697447427e+02
2.8695577256e+02
2.7964501327e+02
2.7349244375e+02
2.6487034376e+02
2.4909589861e+02
2.2392363152e+02
1.9299930426e+02
1.6432896691e+02
1.4414785255e+02
1.3307499640e+02
1.2808433748e+02
1.2610979658e+02
1.2538512776e+02
1.2513027472e+02
1.2504311156e+02
1.2501396607e+02
1.2500442680e+02
1.2500137183e+02
1.2500041531e+02
1.2500012275e+02
1.2500003541e+02
1.2500000996e+02
1.2500000274e+02
1.2500000074e+02
1.2500000020e+02
1.2500000005e+02
1.2500000002e+02
1.2500000001e+02
1.2500000001e+02
1.2500000000e+02
1.2500000000e+02
1.2500000000e+02
1.2500000000e+02
1.2500000000e+02
1.2500000000e+02
1.2500000000e+02
1.2500000000e+02

SCALARS molarDensity float
LOOKUP_TABLE default
1.2977624132e+05
1.2977624132e+05
1.2977624132e+05
1.2977624132e+05
1.2977624132e+05
1.2977624132e+05
1.2977624132e+05
1.2977624132e+05
1.2977624132e+05
1.2977624132e+05
1.2977624131e+05
1.2977624128e+05
1.2977624117e+05
1.2977624082e+05
1.2977623976e+05
1.2977623655e+05
1.2977622726e+05
1.2977620117e+05
1.2977613046e+05
1.2977594560e+05
1.2977547984e+05
1.2977435036e+05
1.2977171729e+05
1.2976582461e+05
1.2975318347e+05
1.2972722939e+05
1.2967631244e+05
1.2958102290e+05
1.2941116895e+05
1.2912318839e+05
1.2865923504e+05
1.2794931357e+05
1.2691731063e+05
1.2549051960e+05
1.2361072485e+05
1.2124392158e+05
1.1838597226e+05
1.1506290907e+05
1.1132643279e+05
1.0724649954e+05
1.0290324447e+05
9.8380004710e+04
9.3758358045e+04
8.9115332377e+04
8.4522468257e+04
8.0046216711e+04
7.5749101983e+04
7.1691025717e+04
6.7929903144e+04
6.4520426647e+04
6.1509215208e+04
5.8924381648e+04
5.6758710757e+04
5.4950124886e+04
5.3377844722e+04
5.1871955945e+04
5.0266879998e+04
4.8458574481e+04
4.6439976678e+04
4.4296545083e+04
4.2169201466e+04
4.0208563439e+04
3.8540231041e+04
3.7240041590e+04
3.6291278728e+04
3.5492821381e+04
3.4373877652e+04
3.2326729452e+04
2.9059967243e+04
2.5046724286e+04
2.1325995667e+04
1.8706966499e+04
1.7269972848e+04
1.6622303891e+04
1.6366055394e+04
1.6272010599e+04
1.6238936730e+04
1.6227625022e+04
1.6223842630e+04
1.6222604659e+04
1.6222208197e+04
1.6222084063e+04
1.6222046096e+04
1.6222034761e+04
1.6222031459e+04
1.6222030521e+04
1.6222030261e+04
1.6222030191e+04
1.6222030173e+04
1.6222030168e+04
1.6222030167e+04
1.6222030167e+04
1.6222030167e+04
1.6222030166e+04
1.6222030166e+04
1.6222030166e+04
1.6222030166e+04
1.6222030166e+04
1.6222030166e+04
1.6222030166e+04
1.2977624132e+05
1.2977624132e+05
1.2977624132e+05
1.2977624132e+05
1.2977624132e+05
1.2977624132e+05
1.2977624132e+05
1.2977624132e+05
1.2977624132e+05
1.2977624132e+05
1.2977624131e+05
1.2977624128e+05
1.2977624117e+05
1.2977624082e+05
1.2977623976e+05
1.2977623655e+05
1.2977622726e+05
1.2977620117e+05
1.2977613046e+05
1.2977594560e+05
1.2977547984e+05
1.2977435036e+05
1.2977171729e+05
1.2976582461e+05
1.2975318347e+05
1.2972722939e+05
1.2967631244e+05
1.2958102290e+05
1.2941116895e+05
1.2912318839e+05
1.2865923504e+05
1.2794931357e+05
1.2691731063e+05
1.2549051960e+05
1.2361072485e+05
1.2124392158e+05
1.1838597226e+05
1.1506290907e+05
1.1132643279e+05
1.0724649954e+05
1.0290324447e+05
9.8380004710e+04
9.3758358045e+04
8.9115332377e+04
8.4522468257e+04
8.0046216711e+04
7.5749101983e+04
7.1691025717e+04
6.7929903144e+04
6.4520426647e+04
6.1509215208e+04
5.8924381648e+04
5.6758710757e+04
5.4950124886e+04
5.3377844722e+04
5.1871955945e+04
5.0266879998e+04
4.8458574481e+04
4.6439976678e+04
4.4296545083e+04
4.2169201466e+04
4.0208563439e+04
3.8540231041e+04
3.7240041590e+04
3.6291278728e+04
3.5492821381e+04
3.4373877652e+04
3.2326729452e+04
2.9059967243e+04