# vtk DataFile Version 2.0
Blank
ASCII
DATASET STRUCTURED_GRID
DIMENSIONS 101 11 2
POINTS 2222 float
0.0000000000e+00 0.0000000000e+00 0.0000000000e+00
1.0000000000e-02 0.0000000000e+00 0.0000000000e+00
2.0000000000e-02 0.0000000000e+00 0.0000000000e+00
3.0000000000e-02 0.0000000000e+00 0.0000000000e+00
4.0000000000e-02 0.0000000000e+00 0.0000000000e+00
5.0000000000e-02 0.0000000000e+00 0.0000000000e+00
6.0000000000e-02 0.0000000000e+00 0.0000000000e+00
7.0000000000e-02 0.0000000000e+00 0.0000000000e+00
8.0000000000e-02 0.0000000000e+00 0.0000000000e+00
9.0000000000e-02 0.0000000000e+00 0.0000000000e+00
1.0000000000e-01 0.0000000000e+00 0.0000000000e+00
1.1000000000e-01 0.0000000000e+00 0.0000000000e+00
1.2000000000e-01 0.0000000000e+00 0.0000000000e+00
1.3000000000e-01 0.0000000000e+00 0.0000000000e+00
1.4000000000e-01 0.0000000000e+00 0.0000000000e+00
1.5000000000e-01 0.0000000000e+00 0.0000000000e+00
1.6000000000e-01 0.0000000000e+00 0.0000000000e+00
1.7000000000e-01 0.0000000000e+00 0.0000000000e+00
1.8000000000e-01 0.0000000000e+00 0.0000000000e+00
1.9000000000e-01 0.0000000000e+00 0.0000000000e+00
2.0000000000e-01 0.0000000000e+00 0.0000000000e+00
2.1000000000e-01 0.0000000000e+00 0.0000000000e+00
2.2000000000e-01 0.0000000000e+00 0.0000000000e+00
2.3000000000e-01 0.0000000000e+00 0.0000000000e+00
2.4000000000e-01 0.0000000000e+00 0.0000000000e+00
2.5000000000e-01 0.0000000000e+00 0.0000000000e+00
2.6000000000e-01 0.0000000000e+00 0.0000000000e+00
2.7000000000e-01 0.0000000000e+00 0.0000000000e+00
2.8000000000e-01 0.0000000000e+00 0.0000000000e+00
2.9000000000e-01 0.0000000000e+00 0.0000000000e+00
3.0000000000e-01 0.0000000000e+00 0.0000000000e+00
3.1000000000e-01 0.0000000000e+00 0.0000000000e+00
3.2000000000e-01 0.0000000000e+00 0.0000000000e+00
3.3000000000e-01 0.0000000000e+00 0.0000000000e+00
3.4000000000e-01 0.0000000000e+00 0.0000000000e+00
3.5000000000e-01 0.0000000000e+00 0.0000000000e+00
3.6000000000e-01 0.0000000000e+00 0.0000000000e+00
3.7000000000e-01 0.0000000000e+00 0.0000000000e+00
3.8000000000e-01 0.0000000000e+00 0.0000000000e+00
3.9000000000e-01 0.0000000000e+00 0.0000000000e+00
4.0000000000e-01 0.0000000000e+00 0.0000000000e+00
4.1000000000e-01 0.0000000000e+00 0.0000000000e+00
4.2000000000e-01 0.0000000000e+00 0.0000000000e+00
4.3000000000e-01 0.0000000000e+00 0.0000000000e+00
4.4000000000e-01 0.0000000000e+00 0.0000000000e+00
4.5000000000e-01 0.0000000000e+00 0.0000000000e+00
4.6000000000e-01 0.0000000000e+00 0.0000000000e+00
4.7000000000e-01 0.0000000000e+00 0.0000000000e+00
4.8000000000e-01 0.0000000000e+00 0.0000000000e+00
4.9000000000e-01 0.0000000000e+00 0.0000000000e+00
5.0000000000e-01 0.0000000000e+00 0.0000000000e+00
5.1000000000e-01 0.0000000000e+00 0.0000000000e+00
5.2000000000e-01 0.0000000000e+00 0.0000000000e+00
5.3000000000e-01 0.0000000000e+00 0.0000000000e+00
5.4000000000e-01 0.0000000000e+00 0.0000000000e+00
5.5000000000e-01 0.0000000000e+00 0.0000000000e+00
5.6000000000e-01 0.0000000000e+00 0.0000000000e+00
5.7000000000e-01 0.0000000000e+00 0.0000000000e+00
5.8000000000e-01 0.0000000000e+00 0.0000000000e+00
5.9000000000e-01 0.0000000000e+00 0.0000000000e+00
6.0000000000e-01 0.0000000000e+00 0.0000000000e+00
6.1000000000e-01 0.0000000000e+00 0.0000000000e+00
6.2000000000e-01 0.0000000000e+00 0.0000000000e+00
6.3000000000e-01 0.0000000000e+00 0.0000000000e+00
6.4000000000e-01 0.0000000000e+00 0.0000000000e+00
6.5000000000e-01 0.0000000000e+00 0.0000000000e+00
6.6000000000e-01 0.0000000000e+00 0.0000000000e+00
6.7000000000e-01 0.0000000000e+00 0.0000000000e+00
6.8000000000e-01 0.0000000000e+00 0.0000000000e+00
6.9000000000e-01 0.0000000000e+00 0.0000000000e+00
7.0000000000e-01 0.0000000000e+00 0.0000000000e+00
7.1000000000e-01 0.0000000000e+00 0.0000000000e+00
7.2000000000e-01 0.0000000000e+00 0.0000000000e+00
7.3000000000e-01 0.0000000000e+00 0.0000000000e+00
7.4000000000e-01 0.0000000000e+00 0.0000000000e+00
7.5000000000e-01 0.0000000000e+00 0.0000000000e+00
7.6000000000e-01 0.0000000000e+00 0.0000000000e+00
7.7000000000e-01 0.0000000000e+00 0.0000000000e+00
7.8000000000e-01 0.0000000000e+00 0.0000000000e+00
7.9000000000e-01 0.0000000000e+00 0.0000000000e+00
8.0000000000e-01 0.0000000000e+00 0.0000000000e+00
8.1000000000e-01 0.0000000000e+00 0.0000000000e+00
8.2000000000e-01 0.0000000000e+00 0.0000000000e+00
8.3000000000e-01 0.0000000000e+00 0.0000000000e+00
8.4000000000e-01 0.0000000000e+00 0.0000000000e+00
8.5000000000e-01 0.0000000000e+00 0.0000000000e+00
8.6000000000e-01 0.0000000000e+00 0.0000000000e+00
8.7000000000e-01 0.0000000000e+00 0.0000000000e+00
8.8000000000e-01 0.0000000000e+00 0.0000000000e+00
8.9000000000e-01 0.0000000000e+00 0.0000000000e+00
9.0000000000e-01 0.0000000000e+00 0.0000000000e+00
9.1000000000e-01 0.0000000000e+00 0.0000000000e+00
9.2000000000e-01 0.0000000000e+00 0.0000000000e+00
9.3000000000e-01 0.0000000000e+00 0.0000000000e+00
9.4000000000e-01 0.0000000000e+00 0.0000000000e+00
9.5000000000e-01 0.0000000000e+00 0.0000000000e+00
9.6000000000e-01 0.0000000000e+00 0.0000000000e+00
9.7000000000e-01 0.0000000000e+00 0.0000000000e+00
9.8000000000e-01 0.0000000000e+00 0.0000000000e+00
9.9000000000e-01 0.0000000000e+00 0.0000000000e+00
1.0000000000e+00 0.0000000000e+00 0.0000000000e+00
0.0000000000e+00 1.0000000000e-03 0.0000000000e+00
1.0000000000e-02 1.0000000000e-03 0.0000000000e+00
2.0000000000e-02 1.0000000000e-03 0.0000000000e+00
3.0000000000e-02 1.0000000000e-03 0.0000000000e+00
4.0000000000e-02 1.0000000000e-03 0.0000000000e+00
5.0000000000e-02 1.0000000000e-03 0.0000000000e+00
6.0000000000e-02 1.0000000000e-03 0.0000000000e+00
7.0000000000e-02 1.0000000000e-03 0.0000000000e+00
8.0000000000e-02 1.0000000000e-03 0.0000000000e+00
9.0000000000e-02 1.0000000000e-03 0.0000000000e+00
1.0000000000e-01 1.0000000000e-03 0.0000000000e+00
1.1000000000e-01 1.0000000000e-03 0.0000000000e+00
1.2000000000e-01 1.0000000000e-03 0.0000000000e+00
1.3000000000e-01 1.0000000000e-03 0.0000000000e+00
1.4000000000e-01 1.0000000000e-03 0.0000000000e+00
1.5000000000e-01 1.0000000000e-03 0.0000000000e+00
1.6000000000e-01 1.0000000000e-03 0.0000000000e+00
1.7000000000e-01 1.0000000000e-03 0.0000000000e+00
1.8000000000e-01 1.0000000000e-03 0.0000000000e+00
1.9000000000e-01 1.0000000000e-03 0.0000000000e+00
2.0000000000e-01 1.0000000000e-03 0.0000000000e+00
2.1000000000e-01 1.0000000000e-03 0.0000000000e+00
2.2000000000e-01 1.0000000000e-03 0.0000000000e+00
2.3000000000e-01 1.0000000000e-03 0.0000000000e+00
2.4000000000e-01 1.0000000000e-03 0.0000000000e+00
2.5000000000e-01 1.0000000000e-03 0.0000000000e+00
2.6000000000e-01 1.0000000000e-03 0.0000000000e+00
2.7000000000e-01 1.0000000000e-03 0.0000000000e+00
2.8000000000e-01 1.0000000000e-03 0.0000000000e+00
2.9000000000e-01 1.0000000000e-03 0.0000000000e+00
3.0000000000e-01 1.0000000000e-03 0.0000000000e+00
3.1000000000e-01 1.0000000000e-03 0.0000000000e+00
3.2000000000e-01 1.0000000000e-03 0.0000000000e+00
3.3000000000e-01 1.0000000000e-03 0.0000000000e+00
3.4000000000e-01 1.0000000000e-03 0.0000000000e+00
3.5000000000e-01 1.0000000000e-03 0.0000000000e+00
3.6000000000e-01 1.0000000000e-03 0.0000000000e+00
3.7000000000e-01 1.0000000000e-03 0.0000000000e+00
3.8000000000e-01 1.0000000000e-03 0.0000000000e+00
3.9000000000e-01 1.0000000000e-03 0.0000000000e+00
4.0000000000e-01 1.0000000000e-03 0.0000000000e+00
4.1000000000e-01 1.0000000000e-03 0.0000000000e+00
4.2000000000e-01 1.0000000000e-03 0.0000000000e+00
4.3000000000e-01 1.0000000000e-03 0.0000000000e+00
4.4000000000e-01 1.0000000000e-03 0.0000000000e+00
4.5000000000e-01 1.0000000000e-03 0.0000000000e+00
4.6000000000e-01 1.0000000000e-03 0.0000000000e+00
4.7000000000e-01 1.0000000000e-03 0.0000000000e+00
4.8000000000e-01 1.0000000000e-03 0.0000000000e+00
4.9000000000e-01 1.0000000000e-03 0.0000000000e+00
5.0000000000e-01 1.0000000000e-03 0.0000000000e+00
5.1000000000e-01 1.0000000000e-03 0.0000000000e+00
5.2000000000e-01 1.0000000000e-03 0.0000000000e+00
5.3000000000e-01 1.0000000000e-03 0.0000000000e+00
5.4000000000e-01 1.0000000000e-03 0.0000000000e+00
5.5000000000e-01 1.0000000000e-03 0.0000000000e+00
5.6000000000e-01 1.0000000000e-03 0.0000000000e+00
5.7000000000e-01 1.0000000000e-03 0.0000000000e+00
5.8000000000e-01 1.0000000000e-03 0.0000000000e+00
5.9000000000e-01 1.0000000000e-03 0.0000000000e+00
6.0000000000e-01 1.0000000000e-03 0.0000000000e+00
6.1000000000e-01 1.0000000000e-03 0.0000000000e+00
6.2000000000e-01 1.0000000000e-03 0.0000000000e+00
6.3000000000e-01 1.0000000000e-03 0.0000000000e+00
6.4000000000e-01 1.0000000000e-03 0.0000000000e+00
6.5000000000e-01 1.0000000000e-03 0.0000000000e+00
6.6000000000e-01 1.0000000000e-03 0.0000000000e+00
6.7000000000e-01 1.0000000000e-03 0.0000000000e+00
6.8000000000e-01 1.0000000000e-03 0.0000000000e+00
6.9000000000e-01 1.0000000000e-03 0.0000000000e+00
7.0000000000e-01 1.0000000000e-03 0.0000000000e+00
7.1000000000e-01 1.0000000000e-03 0.0000000000e+00
7.2000000000e-01 1.0000000000e-03 0.0000000000e+00
7.3000000000e-01 1.0000000000e-03 0.0000000000e+00
7.4000000000e-01 1.0000000000e-03 0.0000000000e+00
7.5000000000e-01 1.0000000000e-03 0.0000000000e+00
7.6000000000e-01 1.0000000000e-03 0.0000000000e+00
7.7000000000e-01 1.0000000000e-03 0.0000000000e+00
7.8000000000e-01 1.0000000000e-03 0.0000000000e+00
7.9000000000e-01 1.0000000000e-03 0.0000000000e+00
8.0000000000e-01 1.0000000000e-03 0.0000000000e+00
8.1000000000e-01 1.0000000000e-03 0.0000000000e+00
8.2000000000e-01 1.0000000000e-03 0.0000000000e+00
8.3000000000e-01 1.0000000000e-03 0.0000000000e+00
8.4000000000e-01 1.0000000000e-03 0.0000000000e+00
8.5000000000e-01 1.0000000000e-03 0.0000000000e+00
8.6000000000e-01 1.0000000000e-03 0.0000000000e+00
8.7000000000e-01 1.0000000000e-03 0.0000000000e+00
8.8000000000e-01 1.0000000000e-03 0.0000000000e+00
8.9000000000e-01 1.0000000000e-03 0.0000000000e+00
9.0000000000e-01 1.0000000000e-03 0.0000000000e+00
9.1000000000e-01 1.0000000000e-03 0.0000000000e+00
9.2000000000e-01 1.0000000000e-03 0.0000000000e+00
[...]
CELL_DATA 1000

SCALARS massDensity float
LOOKUP_TABLE default
9.9999999993e+02
9.9999999990e+02
9.9999999978e+02
9.9999999944e+02
9.9999999846e+02
9.9999999574e+02
9.9999998835e+02
9.9999996881e+02
9.9999991846e+02
9.9999979229e+02
9.9999948471e+02
9.9999875602e+02
9.9999707932e+02
9.9999333519e+02
9.9998522769e+02
9.9996821832e+02
9.9993367548e+02
9.9986583731e+02
9.9973713283e+02
9.9950148796e+02
9.9908557331e+02
9.9837863225e+02
9.9722255868e+02
9.9540505655e+02
9.9265950885e+02
9.8867494183e+02
9.8311768770e+02
9.7566316088e+02
9.6603258445e+02
9.5402711554e+02
9.3955190680e+02
9.2262534549e+02
9.0337287323e+02
8.8200863419e+02
8.5881036807e+02
8.3409310253e+02
8.0818586438e+02
7.8141373201e+02
7.5408585106e+02
7.2648889952e+02
6.9888494689e+02
6.7151254814e+02
6.4459005024e+02
6.1832030154e+02
5.9289612790e+02
5.6850599174e+02
5.4533911374e+02
5.2358894322e+02
5.0345317152e+02
4.8512756727e+02
4.6879014448e+02
4.5457240014e+02
4.4251678013e+02
4.3252485327e+02
4.2430778850e+02
4.1736961792e+02
4.1101856608e+02
4.0445176005e+02
3.9689672959e+02
3.8777371945e+02
3.7683559975e+02
3.6423089754e+02
3.5046266761e+02
3.3626001212e+02
3.2241187725e+02
3.0961732195e+02
2.9838852968e+02
2.8902010396e+02
2.8162072657e+02
2.7617894229e+02
2.7257080410e+02
2.7031000756e+02
2.6786615999e+02
2.6197346536e+02
2.4834907465e+02
2.2487334199e+02
1.9495643594e+02
1.6640940200e+02
1.4571670923e+02
1.3400331049e+02
1.2855285570e+02
1.2632577612e+02
1.2547987768e+02
1.2517054957e+02
1.2505979227e+02
1.2502070220e+02
1.2500707707e+02
1.2500238685e+02
1.2500079350e+02
1.2500025980e+02
1.2500008371e+02
1.2500002653e+02
1.2500000826e+02
1.2500000253e+02
1.2500000076e+02
1.2500000023e+02
1.2500000007e+02
1.2500000002e+02
1.2500000001e+02
1.2500000001e+02
9.9999999993e+02
9.9999999990e+02
9.9999999978e+02
9.9999999944e+02
9.9999999846e+02
9.9999999574e+02
9.9999998835e+02
9.9999996881e+02
9.9999991846e+02
9.9999979229e+02
9.9999948471e+02
9.9999875602e+02
9.9999707932e+02
9.9999333519e+02
9.9998522769e+02
9.9996821832e+02
9.9993367548e+02
9.9986583731e+02
9.9973713283e+02
9.9950148796e+02
9.9908557331e+02
9.9837863225e+02
9.9722255868e+02
9.9540505655e+02
9.9265950885e+02
9.8867494183e+02
9.8311768770e+02
9.7566316088e+02
9.6603258445e+02
9.5402711554e+02
9.3955190680e+02
9.2262534549e+02
9.0337287323e+02
8.8200863419e+02
8.5881036807e+02
8.3409310253e+02
8.0818586438e+02
7.8141373201e+02
7.5408585106e+02
7.2648889952e+02
6.9888494689e+02
6.7151254814e+02
6.4459005024e+02
6.1832030154e+02
5.9289612790e+02
5.6850599174e+02
5.4533911374e+02
5.2358894322e+02
5.0345317152e+02
4.8512756727e+02
4.6879014448e+02
4.5457240014e+02
4.4251678013e+02
4.3252485327e+02
4.2430778850e+02
4.1736961792e+02
4.1101856608e+02
4.0445176005e+02
3.9689672959e+02
3.8777371945e+02
3.7683559975e+02
3.6423089754e+02
3.5046266761e+02
3.3626001212e+02
3.2241187725e+02
3.0961732195e+02
2.9838852968e+02
2.8902010396e+02
2.8162072657e+02
2.7617894229e+02
2.7257080410e+02
2.7031000756e+02
2.6786615999e+02
2.6197346536e+02
2.4834907465e+02
2.2487334199e+02
1.9495643594e+02
1.6640940200e+02
1.4571670923e+02
1.3400331049e+02
1.2855285570e+02
1.2632577612e+02
1.2547987768e+02
1.2517054957e+02
1.2505979227e+02
1.2502070220e+02
1.2500707707e+02
1.2500238685e+02
1.2500079350e+02
1.2500025980e+02
1.2500008371e+02
1.2500002653e+02
1.2500000826e+02
1.2500000253e+02
1.2500000076e+02
1.2500000023e+02
1.2500000007e+02
1.2500000002e+02
1.2500000001e+02
1.2500000001e+02
9.9999999993e+02
9.9999999990e+02
9.9999999978e+02
9.9999999944e+02
9.9999999846e+02
9.9999999574e+02
9.9999998835e+02
9.9999996881e+02
9.9999991846e+02
9.9999979229e+02
9.9999948471e+02
9.9999875602e+02
9.9999707932e+02
9.9999333519e+02
9.9998522769e+02
9.9996821832e+02
9.9993367548e+02
9.9986583731e+02
9.9973713283e+02
9.9950148796e+02
9.9908557331e+02
9.9837863225e+02
9.9722255868e+02
9.9540505655e+02
9.9265950885e+02
9.8867494183e+02
9.8311768770e+02
9.7566316088e+02
9.6603258445e+02
9.5402711554e+02
9.3955190680e+02
9.2262534549e+02
9.0337287323e+02
8.8200863419e+02
8.5881036807e+02
8.3409310253e+02
8.0818586438e+02
7.8141373201e+02
7.5408585106e+02
7.2648889952e+02
6.9888494689e+02
6.7151254814e+02
6.4459005024e+02
6.1832030154e+02
5.9289612790e+02
5.6850599174e+02
5.4533911374e+02
5.2358894322e+02
5.0345317152e+02
4.8512756727e+02
4.6879014448e+02
4.5457240014e+02
4.4251678013e+02
4.3252485327e+02
4.2430778850e+02
4.1736961792e+02
4.1101856608e+02
4.0445176005e+02
3.9689672959e+02
3.8777371945e+02
3.7683559975e+02
3.6423089754e+02
3.5046266761e+02
3.3626001212e+02
3.2241187725e+02
3.0961732195e+02
2.9838852968e+02
2.8902010396e+02
2.8162072657e+02
2.7617894229e+02
2.7257080410e+02
2.7031000756e+02
2.6786615999e+02
2.6197346536e+02
2.4834907465e+02
2.2487334199e+02
1.9495643594e+02
1.6640940200e+02
1.4571670923e+02
1.3400331049e+02
1.2855285570e+02
1.2632577612e+02
1.2547987768e+02
1.2517054957e+02
1.2505979227e+02
1.2502070220e+02
1.2500707707e+02
1.2500238685e+02
1.2500079350e+02
1.2500025980e+02
1.2500008371e+02
1.2500002653e+02
1.2500000826e+02
1.2500000253e+02
1.2500000076e+02
1.2500000023e+02
1.2500000007e+02
1.2500000002e+02
1.2500000001e+02
1.2500000001e+02
9.9999999993e+02
9.9999999990e+02
9.9999999978e+02
9.9999999944e+02
9.9999999846e+02
9.9999999574e+02
9.9999998835e+02
9.9999996881e+02
9.9999991846e+02
9.9999979229e+02
9.9999948471e+02
9.9999875602e+02
9.9999707932e+02
9.9999333519e+02
9.9998522769e+02
9.9996821832e+02
9.9993367548e+02
9.9986583731e+02
9.9973713283e+02
9.9950148796e+02
9.9908557331e+02
9.9837863225e+02
9.9722255868e+02
9.9540505655e+02
9.9265950885e+02
9.8867494183e+02
9.8311768770e+02
9.7566316088e+02
9.6603258445e+02
9.5402711554e+02
9.3955190680e+02
9.2262534549e+02
9.0337287323e+02
8.8200863419e+02
8.5881036807e+02
8.3409310253e+02
8.0818586438e+02
7.8141373201e+02
7.5408585106e+02
7.2648889952e+02
6.9888494689e+02
6.7151254814e+02
6.4459005024e+02
6.1832030154e+02
5.9289612790e+02
5.6850599174e+02
5.4533911374e+02
5.2358894322e+02
5.0345317152e+02
4.8512756727e+02
4.6879014448e+02
4.5457240014e+02
4.4251678013e+02
4.3252485327e+02
4.2430778850e+02
4.1736961792e+02
4.1101856608e+02
4.0445176005e+02
3.9689672959e+02
3.8777371945e+02
3.7683559975e+02
3.6423089754e+02
3.5046266761e+02
3.3626001212e+02
3.2241187725e+02
3.0961732195e+02
2.9838852968e+02
2.8902010396e+02
2.8162072657e+02
2.7617894229e+02
2.7257080410e+02
2.7031000756e+02
2.6786615999e+02
2.6197346536e+02
2.4834907465e+02
2.2487334199e+02
1.9495643594e+02
1.6640940200e+02
1.4571670923e+02
1.3400331049e+02
1.2855285570e+02
1.2632577612e+02
1.2547987768e+02
1.2517054957e+02
1.2505979227e+02
1.2502070220e+02
1.2500707707e+02
1.2500238685e+02
1.2500079350e+02
1.2500025980e+02
1.2500008371e+02
1.2500002653e+02
1.2500000826e+02
1.2500000253e+02
1.2500000076e+02
1.2500000023e+02
1.2500000007e+02
1.2500000002e+02
1.2500000001e+02
1.2500000001e+02
9.9999999993e+02
9.9999999990e+02
9.9999999978e+02
9.9999999944e+02
9.9999999846e+02
9.9999999574e+02
9.9999998835e+02
9.9999996881e+02
9.9999991846e+02
9.9999979229e+02
9.9999948471e+02
9.9999875602e+02
9.9999707932e+02
9.9999333519e+02
9.9998522769e+02
9.9996821832e+02
9.9993367548e+02
9.9986583731e+02
9.9973713283e+02
9.9950148796e+02
9.9908557331e+02
9.9837863225e+02
9.9722255868e+02
9.9540505655e+02
9.9265950885e+02
9.8867494183e+02
9.8311768770e+02
9.7566316088e+02
9.6603258445e+02
9.5402711554e+02
9.3955190680e+02
9.2262534549e+02
9.0337287323e+02
8.8200863419e+02
8.5881036807e+02
8.3409310253e+02
8.0818586438e+02
7.8141373201e+02
7.5408585106e+02
7.2648889952e+02
6.9888494689e+02
6.7151254814e+02
6.4459005024e+02
6.1832030154e+02
5.9289612790e+02
5.6850599174e+02
5.4533911374e+02
5.2358894322e+02
5.0345317152e+02
4.8512756727e+02
4.6879014448e+02
4.5457240014e+02
4.4251678013e+02
4.3252485327e+02
4.2430778850e+02
4.1736961792e+02
4.1101856608e+02
4.0445176005e+02
3.9689672959e+02
3.8777371945e+02
3.7683559975e+02
3.6423089754e+02
3.5046266761e+02
3.3626001212e+02
3.2241187725e+02
3.0961732195e+02
2.9838852968e+02
2.8902010396e+02
2.8162072657e+02
2.7617894229e+02
2.7257080410e+02
2.7031000756e+02
2.6786615999e+02
2.6197346536e+02
2.4834907465e+02
2.2487334199e+02
1.9495643594e+02
1.6640940200e+02
1.4571670923e+02
1.3400331049e+02
1.2855285570e+02
1.2632577612e+02
1.2547987768e+02
1.2517054957e+02
1.2505979227e+02
1.2502070220e+02
1.2500707707e+02
1.2500238685e+02
1.2500079350e+02
1.2500025980e+02
1.2500008371e+02
1.2500002653e+02
1.2500000826e+02
1.2500000253e+02
1.2500000076e+02
1.2500000023e+02
1.2500000007e+02
1.2500000002e+02
1.2500000001e+02
1.2500000001e+02
9.9999999993e+02
9.9999999990e+02
9.9999999978e+02
9.9999999944e+02
9.9999999846e+02
9.9999999574e+02
9.9999998835e+02
9.9999996881e+02
9.9999991846e+02
9.9999979229e+02
9.9999948471e+02
9.9999875602e+02
9.9999707932e+02
9.9999333519e+02
9.9998522769e+02
9.9996821832e+02
9.9993367548e+02
9.9986583731e+02
9.9973713283e+02
9.9950148796e+02
9.9908557331e+02
9.9837863225e+02
9.9722255868e+02
9.9540505655e+02
9.9265950885e+02
9.8867494183e+02
9.8311768770e+02
9.7566316088e+02
9.6603258445e+02
9.5402711554e+02
9.3955190680e+02
9.2262534549e+02
9.0337287323e+02
8.8200863419e+02
8.5881036807e+02
8.3409310253e+02
8.0818586438e+02
7.8141373201e+02
7.5408585106e+02
7.2648889952e+02
6.9888494689e+02
6.7151254814e+02
6.4459005024e+02
6.1832030154e+02
5.9289612790e+02
5.6850599174e+02
5.4533911374e+02
5.2358894322e+02
5.0345317152e+02
4.8512756727e+02
4.6879014448e+02
4.5457240014e+02
4.4251678013e+02
4.3252485327e+02
4.2430778850e+02
4.1736961792e+02
4.1101856608e+02
4.0445176005e+02
3.9689672959e+02
3.8777371945e+02
3.7683559975e+02
3.6423089754e+02
3.5046266761e+02
3.3626001212e+02
3.2241187725e+02
3.0961732195e+02
2.9838852968e+02
2.8902010396e+02
2.8162072657e+02
2.7617894229e+02
2.7257080410e+02
2.7031000756e+02
2.6786615999e+02
2.6197346536e+02
2.4834907465e+02
2.2487334199e+02
1.9495643594e+02
1.6640940200e+02
1.4571670923e+02
1.3400331049e+02
1.2855285570e+02
1.2632577612e+02
1.2547987768e+02
1.2517054957e+02
1.2505979227e+02
1.2502070220e+02
1.2500707707e+02
1.2500238685e+02
1.2500079350e+02
1.2500025980e+02
1.2500008371e+02
1.2500002653e+02
1.2500000826e+02
1.2500000253e+02
1.2500000076e+02
1.2500000023e+02
1.2500000007e+02
1.2500000002e+02
1.2500000001e+02
1.2500000001e+02
9.9999999993e+02
9.9999999990e+02
9.9999999978e+02
9.9999999944e+02
9.9999999846e+02
9.9999999574e+02
9.9999998835e+02
9.9999996881e+02
9.9999991846e+02
9.9999979229e+02
9.9999948471e+02
9.9999875602e+02
9.9999707932e+02
9.9999333519e+02
9.9998522769e+02
9.9996821832e+02
9.9993367548e+02
9.9986583731e+02
9.9973713283e+02
9.9950148796e+02
9.9908557331e+02
9.9837863225e+02
9.9722255868e+02
9.9540505655e+02
9.9265950885e+02
9.8867494183e+02
9.8311768770e+02
9.7566316088e+02
9.6603258445e+02
9.5402711554e+02
9.3955190680e+02
9.2262534549e+02
9.0337287323e+02
8.8200863419e+02
8.5881036807e+02
8.3409310253e+02
8.0818586438e+02
7.8141373201e+02
7.5408585106e+02
7.2648889952e+02
6.9888494689e+02
6.7151254814e+02
6.4459005024e+02
6.1832030154e+02
5.9289612790e+02
5.6850599174e+02
5.4533911374e+02
5.2358894322e+02
5.0345317152e+02
4.8512756727e+02
4.6879014448e+02
4.5457240014e+02
4.4251678013e+02
4.3252485327e+02
4.2430778850e+02
4.1736961792e+02
4.1101856608e+02
4.0445176005e+02
3.9689672959e+02
3.8777371945e+02
3.7683559975e+02
3.6423089754e+02
3.5046266761e+02
3.3626001212e+02
3.2241187725e+02
3.0961732195e+02
2.9838852968e+02
2.8902010396e+02
2.8162072657e+02
2.7617894229e+02
2.7257080410e+02
2.7031000756e+02
2.6786615999e+02
2.6197346536e+02
2.4834907465e+02
2.2487334199e+02
1.9495643594e+02
1.6640940200e+02
1.4571670923e+02
1.3400331049e+02
1.2855285570e+02
1.2632577612e+02
1.2547987768e+02
1.2517054957e+02
1.2505979227e+02
1.2502070220e+02
1.2500707707e+02
1.2500238685e+02
1.2500079350e+02
1.2500025980e+02
1.2500008371e+02
1.2500002653e+02
1.2500000826e+02
1.2500000253e+02
1.2500000076e+02
1.2500000023e+02
1.2500000007e+02
1.2500000002e+02
1.2500000001e+02
1.2500000001e+02
9.9999999993e+02
9.9999999990e+02
9.9999999978e+02
9.9999999944e+02
9.9999999846e+02
9.9999999574e+02
9.9999998835e+02
9.9999996881e+02
9.9999991846e+02
9.9999979229e+02
9.9999948471e+02
9.9999875602e+02
9.9999707932e+02
9.9999333519e+02
9.9998522769e+02
9.9996821832e+02
9.9993367548e+02
9.9986583731e+02
9.9973713283e+02
9.9950148796e+02
9.9908557331e+02
9.9837863225e+02
9.9722255868e+02
9.9540505655e+02
9.9265950885e+02
9.8867494183e+02
9.8311768770e+02
9.7566316088e+02
9.6603258445e+02
9.5402711554e+02
9.3955190680e+02
9.2262534549e+02
9.0337287323e+02
8.8200863419e+02
8.5881036807e+02
8.3409310253e+02
8.0818586438e+02
7.8141373201e+02
7.5408585106e+02
7.2648889952e+02
6.9888494689e+02
6.7151254814e+02
6.4459005024e+02
6.1832030154e+02
5.9289612790e+02
5.6850599174e+02
5.4533911374e+02
5.2358894322e+02
5.0345317152e+02
4.8512756727e+02
4.6879014448e+02
4.5457240014e+02
4.4251678013e+02
4.3252485327e+02
4.2430778850e+02
4.1736961792e+02
4.1101856608e+02
4.0445176005e+02
3.9689672959e+02
3.8777371945e+02
3.7683559975e+02
3.6423089754e+02
3.5046266761e+02
3.3626001212e+02
3.2241187725e+02
3.0961732195e+02
2.9838852968e+02
2.8902010396e+02
2.8162072657e+02
2.7617894229e+02
2.7257080410e+02
2.7031000756e+02
2.6786615999e+02
2.6197346536e+02
2.4834907465e+02
2.2487334199e+02
1.9495643594e+02
1.6640940200e+02
1.4571670923e+02
1.3400331049e+02
1.2855285570e+02
1.2632577612e+02
1.2547987768e+02
1.2517054957e+02
1.2505979227e+02
1.2502070220e+02
1.2500707707e+02
1.2500238685e+02
1.2500079350e+02
1.2500025980e+02
1.2500008371e+02
1.2500002653e+02
1.2500000826e+02
1.2500000253e+02
1.2500000076e+02
1.2500000023e+02
1.2500000007e+02
1.2500000002e+02
1.2500000001e+02
1.2500000001e+02
9.9999999993e+02
9.9999999990e+02
9.9999999978e+02
9.9999999944e+02
9.9999999846e+02
9.9999999574e+02
9.9999998835e+02
9.9999996881e+02
9.9999991846e+02
9.9999979229e+02
9.9999948471e+02
9.9999875602e+02
9.9999707932e+02
9.9999333519e+02
9.9998522769e+02
9.9996821832e+02
9.9993367548e+02
9.9986583731e+02
9.9973713283e+02
9.9950148796e+02
9.9908557331e+02
9.9837863225e+02
9.9722255868e+02
9.9540505655e+02
9.9265950885e+02
9.8867494183e+02
9.8311768770e+02
9.7566316088e+02
9.6603258445e+02
9.5402711554e+02
9.3955190680e+02
9.2262534549e+02
9.0337287323e+02
8.8200863419e+02
8.5881036807e+02
8.3409310253e+02
8.0818586438e+02
7.8141373201e+02
7.5408585106e+02
7.2648889952e+02
6.9888494689e+02
6.7151254814e+02
6.4459005024e+02
6.1832030154e+02
5.9289612790e+02
5.6850599174e+02
5.4533911374e+02
5.2358894322e+02
5.0345317152e+02
4.8512756727e+02
4.6879014448e+02
4.5457240014e+02
4.4251678013e+02
4.3252485327e+02
4.2430778850e+02
4.1736961792e+02
4.1101856608e+02
4.0445176005e+02
3.9689672959e+02
3.8777371945e+02
3.7683559975e+02
3.6423089754e+02
3.5046266761e+02
3.3626001212e+02
3.2241187725e+02
3.0961732195e+02
2.9838852968e+02
2.8902010396e+02
2.8162072657e+02
2.7617894229e+02
2.7257080410e+02
2.7031000756e+02
2.6786615999e+02
2.6197346536e+02
2.4834907465e+02
2.2487334199e+02
1.9495643594e+02
1.6640940200e+02
1.4571670923e+02
1.3400331049e+02
1.2855285570e+02
1.2632577612e+02
1.2547987768e+02
1.2517054957e+02
1.2505979227e+02
1.2502070220e+02
1.2500707707e+02
1.2500238685e+02
1.2500079350e+02
1.2500025980e+02
1.2500008371e+02
1.2500002653e+02
1.2500000826e+02
1.2500000253e+02
1.2500000076e+02
1.2500000023e+02
1.2500000007e+02
1.2500000002e+02
1.2500000001e+02
1.2500000001e+02
9.9999999993e+02
9.9999999990e+02
9.9999999978e+02
9.9999999944e+02
9.9999999846e+02
9.9999999574e+02
9.9999998835e+02
9.9999996881e+02
9.9999991846e+02
9.9999979229e+02
9.9999948471e+02
9.9999875602e+02
9.9999707932e+02
9.9999333519e+02
9.9998522769e+02
9.9996821832e+02
9.9993367548e+02
9.9986583731e+02
9.9973713283e+02
9.9950148796e+02
9.9908557331e+02
9.9837863225e+02
9.9722255868e+02
9.9540505655e+02
9.9265950885e+02
9.8867494183e+02
9.8311768770e+02
9.7566316088e+02
9.6603258445e+02
9.5402711554e+02
9.3955190680e+02
9.2262534549e+02
9.0337287323e+02
8.8200863419e+02
8.5881036807e+02
8.3409310253e+02
8.0818586438e+02
7.8141373201e+02
7.5408585106e+02
7.2648889952e+02
6.9888494689e+02
6.7151254814e+02
6.4459005024e+02
6.1832030154e+02
5.9289612790e+02
5.6850599174e+02
5.4533911374e+02
5.2358894322e+02
5.0345317152e+02
4.8512756727e+02
4.6879014448e+02
4.5457240014e+02
4.4251678013e+02
4.3252485327e+02
4.2430778850e+02
4.1736961792e+02
4.1101856608e+02
4.0445176005e+02
3.9689672959e+02
3.8777371945e+02
3.7683559975e+02
3.6423089754e+02
3.5046266761e+02
3.3626001212e+02
3.2241187725e+02
3.0961732195e+02
2.9838852968e+02
2.8902010396e+02
2.8162072657e+02
2.7617894229e+02
2.7257080410e+02
2.7031000756e+02
2.6786615999e+02
2.6197346536e+02
2.4834907465e+02
2.2487334199e+02
1.9495643594e+02
1.6640940200e+02
1.4571670923e+02
1.3400331049e+02
1.2855285570e+02
1.2632577612e+02
1.2547987768e+02
1.2517054957e+02
1.2505979227e+02
1.2502070220e+02
1.2500707707e+02
1.2500238685e+02
1.2500079350e+02
1.2500025980e+02
1.2500008371e+02
1.2500002653e+02
1.2500000826e+02
1.2500000253e+02
1.2500000076e+02
1.2500000023e+02
1.2500000007e+02
1.2500000002e+02
1.2500000001e+02
1.2500000001e+02

SCALARS molarDensity float
LOOKUP_TABLE default
1.2977624132e+05
1.2977624131e+05
1.2977624130e+05
1.2977624125e+05
1.2977624113e+05
1.2977624077e+05
1.2977623982e+05
1.2977623728e+05
1.2977623075e+05
1.2977621437e+05
1.2977617445e+05
1.2977607989e+05
1.2977586229e+05
1.2977537639e+05
1.2977432423e+05
1.2977211682e+05
1.2976763398e+05
1.2975883020e+05
1.2974212741e+05
1.2971154631e+05
1.2965757047e+05
1.2956582632e+05
1.2941579543e+05
1.2917992684e+05
1.2882361998e+05
1.2830651784e+05
1.2758531829e+05
1.2661789782e+05
1.2536807781e+05
1.2381005318e+05
1.2193151500e+05
1.1973484949e+05
1.1723633600e+05
1.1446376536e+05
1.1145318158e+05
1.0824546776e+05
1.0488332377e+05
1.0140893706e+05
9.7862427389e+04
9.4280998746e+04
9.0698661527e+04
8.7146374502e+04
8.3652473917e+04
8.0243284670e+04
7.6943830976e+04
7.3778570780e+04
7.0772060430e+04
6.7949405052e+04
6.5336260283e+04
6.2958032245e+04
6.0837822921e+04
5.8992697501e+04
5.7428164450e+04
5.6131449738e+04
5.5065069957e+04
5.4164660258e+04
5.3340444622e+04
5.2488229218e+04
5.1507765761e+04
5.0323815796e+04
4.8904307734e+04
4.7268516858e+04
4.5481727728e+04
4.3638560482e+04
4.1841401589e+04
4.0180972293e+04
3.8723741837e+04
3.7507942760e+04
3.6547679375e+04
3.5841465064e+04
3.5373214452e+04
3.5079816775e+04
3.4762663422e+04
3.3997931662e+04
3.2229809446e+04
2.9183217099e+04
2.5300713479e+04
2.1595986713e+04
1.8910566822e+04
1.7390445961e+04
1.6683106424e+04
1.6394084407e+04
1.6284306887e+04
1.6244163448e+04
1.6229789781e+04
1.6224716820e+04
1.6222948601e+04
1.6222339922e+04
1.6222133143e+04
1.6222063882e+04
1.6222041030e+04
1.6222033609e+04
1.6222031238e+04
1.6222030494e+04
1.6222030265e+04
1.6222030196e+04
1.6222030175e+04
1.6222030169e+04
1.6222030167e+04
1.6222030167e+04
1.2977624132e+05
1.2977624131e+05
1.2977624130e+05
1.2977624125e+05
1.2977624113e+05
1.2977624077e+05
1.2977623982e+05
1.2977623728e+05
1.2977623075e+05
1.2977621437e+05
1.2977617445e+05
1.2977607989e+05
1.2977586229e+05
1.2977537639e+05
1.2977432423e+05
1.2977211682e+05
1.2976763398e+05
1.2975883020e+05
1.2974212741e+05
1.2971154631e+05
1.2965757047e+05
1.2956582632e+05
1.2941579543e+05
1.2917992684e+05
1.2882361998e+05
1.2830651784e+05
1.2758531829e+05
1.2661789782e+05
1.2536807781e+05
1.2381005318e+05
1.2193151500e+05
1.1973484949e+05
1.1723633600e+05
1.1446376536e+05
1.1145318158e+05
1.0824546776e+05
1.0488332377e+05
1.0140893706e+05
9.7862427389e+04
9.4280998746e+04
9.0698661527e+04
8.7146374502e+04
8.3652473917e+04
8.0243284670e+04
7.6943830976e+04
7.3778570780e+04
7.0772060430e+04
6.7949405052e+04
6.5336260283e+04
6.2958032245e+04
6.0837822921e+04
5.8992697501e+04
5.7428164450e+04
5.6131449738e+04
5.5065069957e+04
5.4164660258e+04
5.3340444622e+04
5.2488229218e+04
5.1507765761e+04
5.0323815796e+04
4.8904307734e+04
4.7268516858e+04
4.5481727728e+04
4.3638560482e+04
4.1841401589e+04
4.0180972293e+04
3.8723741837e+04
3.7507942760e+04
3.6547679375e+04