# vtk DataFile Version 2.0
Blank
ASCII
DATASET STRUCTURED_GRID
DIMENSIONS 11 11 2
POINTS 242 float
0.0000000000e+00 0.0000000000e+00 0.0000000000e+00
1.0000000000e+00 0.0000000000e+00 0.0000000000e+00
2.0000000000e+00 0.0000000000e+00 0.0000000000e+00
3.0000000000e+00 0.0000000000e+00 0.0000000000e+00
4.0000000000e+00 0.0000000000e+00 0.0000000000e+00
5.0000000000e+00 0.0000000000e+00 0.0000000000e+00
6.0000000000e+00 0.0000000000e+00 0.0000000000e+00
7.0000000000e+00 0.0000000000e+00 0.0000000000e+00
8.0000000000e+00 0.0000000000e+00 0.0000000000e+00
9.0000000000e+00 0.0000000000e+00 0.0000000000e+00
1.0000000000e+01 0.0000000000e+00 0.0000000000e+00
0.0000000000e+00 5.0000000000e-01 0.0000000000e+00
1.0000000000e+00 5.0000000000e-01 0.0000000000e+00
2.0000000000e+00 5.0000000000e-01 0.0000000000e+00
3.0000000000e+00 5.0000000000e-01 0.0000000000e+00
4.0000000000e+00 5.0000000000e-01 0.0000000000e+00
5.0000000000e+00 5.0000000000e-01 0.0000000000e+00
6.0000000000e+00 5.0000000000e-01 0.0000000000e+00
7.0000000000e+00 5.0000000000e-01 0.0000000000e+00
8.0000000000e+00 5.0000000000e-01 0.0000000000e+00
9.0000000000e+00 5.0000000000e-01 0.0000000000e+00
1.0000000000e+01 5.0000000000e-01 0.0000000000e+00
0.0000000000e+00 1.0000000000e+00 0.0000000000e+00
1.0000000000e+00 1.0000000000e+00 0.0000000000e+00
2.0000000000e+00 1.0000000000e+00 0.0000000000e+00
3.0000000000e+00 1.0000000000e+00 0.0000000000e+00
4.0000000000e+00 1.0000000000e+00 0.0000000000e+00
5.0000000000e+00 1.0000000000e+00 0.0000000000e+00
6.0000000000e+00 1.0000000000e+00 0.0000000000e+00
7.0000000000e+00 1.0000000000e+00 0.0000000000e+00
8.0000000000e+00 1.0000000000e+00 0.0000000000e+00
9.0000000000e+00 1.0000000000e+00 0.0000000000e+00
1.0000000000e+01 1.0000000000e+00 0.0000000000e+00
0.0000000000e+00 1.5000000000e+00 0.0000000000e+00
1.0000000000e+00 1.5000000000e+00 0.0000000000e+00
2.0000000000e+00 1.5000000000e+00 0.0000000000e+00
3.0000000000e+00 1.5000000000e+00 0.0000000000e+00
4.0000000000e+00 1.5000000000e+00 0.0000000000e+00
5.0000000000e+00 1.5000000000e+00 0.0000000000e+00
6.0000000000e+00 1.5000000000e+00 0.0000000000e+00
7.0000000000e+00 1.5000000000e+00 0.0000000000e+00
8.0000000000e+00 1.5000000000e+00 0.0000000000e+00
9.0000000000e+00 1.5000000000e+00 0.0000000000e+00
1.0000000000e+01 1.5000000000e+00 0.0000000000e+00
0.0000000000e+00 2.0000000000e+00 0.0000000000e+00
1.0000000000e+00 2.0000000000e+00 0.0000000000e+00
2.0000000000e+00 2.0000000000e+00 0.0000000000e+00
3.0000000000e+00 2.0000000000e+00 0.0000000000e+00
4.0000000000e+00 2.0000000000e+00 0.0000000000e+00
5.0000000000e+00 2.0000000000e+00 0.0000000000e+00
6.0000000000e+00 2.0000000000e+00 0.0000000000e+00
7.0000000000e+00 2.0000000000e+00 0.0000000000e+00
8.0000000000e+00 2.0000000000e+00 0.0000000000e+00
9.0000000000e+00 2.0000000000e+00 0.0000000000e+00
1.0000000000e+01 2.0000000000e+00 0.0000000000e+00
0.0000000000e+00 2.5000000000e+00 0.0000000000e+00
1.0000000000e+00 2.5000000000e+00 0.0000000000e+00
2.0000000000e+00 2.5000000000e+00 0.0000000000e+00
3.0000000000e+00 2.5000000000e+00 0.0000000000e+00
4.0000000000e+00 2.5000000000e+00 0.0000000000e+00
5.0000000000e+00 2.5000000000e+00 0.0000000000e+00
6.0000000000e+00 2.5000000000e+00 0.0000000000e+00
7.0000000000e+00 2.5000000000e+00 0.0000000000e+00
8.0000000000e+00 2.5000000000e+00 0.0000000000e+00
9.0000000000e+00 2.5000000000e+00 0.0000000000e+00
1.0000000000e+01 2.5000000000e+00 0.0000000000e+00
0.0000000000e+00 3.0000000000e+00 0.0000000000e+00
1.0000000000e+00 3.0000000000e+00 0.0000000000e+00
2.0000000000e+00 3.0000000000e+00 0.0000000000e+00
3.0000000000e+00 3.0000000000e+00 0.0000000000e+00
4.0000000000e+00 3.0000000000e+00 0.0000000000e+00
5.0000000000e+00 3.0000000000e+00 0.0000000000e+00
6.0000000000e+00 3.0000000000e+00 0.0000000000e+00
7.0000000000e+00 3.0000000000e+00 0.0000000000e+00
8.0000000000e+00 3.0000000000e+00 0.0000000000e+00
9.0000000000e+00 3.0000000000e+00 0.0000000000e+00
1.0000000000e+01 3.0000000000e+00 0.0000000000e+00
0.0000000000e+00 3.5000000000e+00 0.0000000000e+00
1.0000000000e+00 3.5000000000e+00 0.0000000000e+00
2.0000000000e+00 3.5000000000e+00 0.0000000000e+00
3.0000000000e+00 3.5000000000e+00 0.0000000000e+00
4.0000000000e+00 3.5000000000e+00 0.0000000000e+00
5.0000000000e+00 3.5000000000e+00 0.0000000000e+00
6.0000000000e+00 3.5000000000e+00 0.0000000000e+00
7.0000000000e+00 3.5000000000e+00 0.0000000000e+00
8.0000000000e+00 3.5000000000e+00 0.0000000000e+00
9.0000000000e+00 3.5000000000e+00 0.0000000000e+00
1.0000000000e+01 3.5000000000e+00 0.0000000000e+00
0.0000000000e+00 4.0000000000e+00 0.0000000000e+00
1.0000000000e+00 4.0000000000e+00 0.0000000000e+00
2.0000000000e+00 4.0000000000e+00 0.0000000000e+00
3.0000000000e+00 4.0000000000e+00 0.0000000000e+00
4.0000000000e+00 4.0000000000e+00 0.0000000000e+00
5.0000000000e+00 4.0000000000e+00 0.0000000000e+00
6.0000000000e+00 4.0000000000e+00 0.0000000000e+00
7.0000000000e+00 4.0000000000e+00 0.0000000000e+00
8.0000000000e+00 4.0000000000e+00 0.0000000000e+00
9.0000000000e+00 4.0000000000e+00 0.0000000000e+00
1.0000000000e+01 4.0000000000e+00 0.0000000000e+00
0.0000000000e+00 4.5000000000e+00 0.0000000000e+00
1.0000000000e+00 4.5000000000e+00 0.0000000000e+00
2.0000000000e+00 4.5000000000e+00 0.0000000000e+00
3.0000000000e+00 4.5000000000e+00 0.0000000000e+00
4.0000000000e+00 4.5000000000e+00 0.0000000000e+00
5.0000000000e+00 4.5000000000e+00 0.0000000000e+00
6.0000000000e+00 4.5000000000e+00 0.0000000000e+00
7.0000000000e+00 4.5000000000e+00 0.0000000000e+00
8.0000000000e+00 4.5000000000e+00 0.0000000000e+00
9.0000000000e+00 4.5000000000e+00 0.0000000000e+00
1.0000000000e+01 4.5000000000e+00 0.0000000000e+00
0.0000000000e+00 5.0000000000e+00 0.0000000000e+00
1.0000000000e+00 5.0000000000e+00 0.0000000000e+00
2.0000000000e+00 5.0000000000e+00 0.0000000000e+00
3.0000000000e+00 5.0000000000e+00 0.0000000000e+00
4.0000000000e+00 5.0000000000e+00 0.0000000000e+00
5.0000000000e+00 5.0000000000e+00 0.0000000000e+00
6.0000000000e+00 5.0000000000e+00 0.0000000000e+00
7.0000000000e+00 5.0000000000e+00 0.0000000000e+00
8.0000000000e+00 5.0000000000e+00 0.0000000000e+00
9.0000000000e+00 5.0000000000e+00 0.0000000000e+00
1.0000000000e+01 5.0000000000e+00 0.0000000000e+00
0.0000000000e+00 0.0000000000e+00 1.0000000000e-03
1.0000000000e+00 0.0000000000e+00 1.0000000000e-03
2.0000000000e+00 0.0000000000e+00 1.0000000000e-03
3.0000000000e+00 0.0000000000e+00 1.0000000000e-03
4.0000000000e+00 0.0000000000e+00 1.0000000000e-03
5.0000000000e+00 0.0000000000e+00 1.0000000000e-03
6.0000000000e+00 0.0000000000e+00 1.0000000000e-03
7.0000000000e+00 0.0000000000e+00 1.0000000000e-03
8.0000000000e+00 0.0000000000e+00 1.0000000000e-03
9.0000000000e+00 0.0000000000e+00 1.0000000000e-03
1.0000000000e+01 0.0000000000e+00 1.0000000000e-03
0.0000000000e+00 5.0000000000e-01 1.0000000000e-03
1.0000000000e+00 5.0000000000e-01 1.0000000000e-03
2.0000000000e+00 5.0000000000e-01 1.0000000000e-03
3.0000000000e+00 5.0000000000e-01 1.0000000000e-03
4.0000000000e+00 5.0000000000e-01 1.0000000000e-03
5.0000000000e+00 5.0000000000e-01 1.0000000000e-03
6.0000000000e+00 5.0000000000e-01 1.0000000000e-03
7.0000000000e+00 5.0000000000e-01 1.0000000000e-03
8.0000000000e+00 5.0000000000e-01 1.0000000000e-03
9.0000000000e+00 5.0000000000e-01 1.0000000000e-03
1.0000000000e+01 5.0000000000e-01 1.0000000000e-03
0.0000000000e+00 1.0000000000e+00 1.0000000000e-03
1.0000000000e+00 1.0000000000e+00 1.0000000000e-03
2.0000000000e+00 1.0000000000e+00 1.0000000000e-03
3.0000000000e+00 1.0000000000e+00 1.0000000000e-03
4.0000000000e+00 1.0000000000e+00 1.0000000000e-03
5.0000000000e+00 1.0000000000e+00 1.0000000000e-03
6.0000000000e+00 1.0000000000e+00 1.0000000000e-03
7.0000000000e+00 1.0000000000e+00 1.0000000000e-03
8.0000000000e+00 1.0000000000e+00 1.0000000000e-03
9.0000000000e+00 1.0000000000e+00 1.0000000000e-03
1.0000000000e+01 1.0000000000e+00 1.0000000000e-03
0.0000000000e+00 1.5000000000e+00 1.0000000000e-03
1.0000000000e+00 1.5000000000e+00 1.0000000000e-03
2.0000000000e+00 1.5000000000e+00 1.0000000000e-03
3.0000000000e+00 1.5000000000e+00 1.0000000000e-03
4.0000000000e+00 1.5000000000e+00 1.0000000000e-03
5.0000000000e+00 1.5000000000e+00 1.0000000000e-03
6.0000000000e+00 1.5000000000e+00 1.0000000000e-03
7.0000000000e+00 1.5000000000e+00 1.0000000000e-03
8.0000000000e+00 1.5000000000e+00 1.0000000000e-03
9.0000000000e+00 1.5000000000e+00 1.0000000000e-03
1.0000000000e+01 1.5000000000e+00 1.0000000000e-03
0.0000000000e+00 2.0000000000e+00 1.0000000000e-03
1.0000000000e+00 2.0000000000e+00 1.0000000000e-03
2.0000000000e+00 2.0000000000e+00 1.0000000000e-03
3.0000000000e+00 2.0000000000e+00 1.0000000000e-03
4.0000000000e+00 2.0000000000e+00 1.0000000000e-03
5.0000000000e+00 2.0000000000e+00 1.0000000000e-03
6.0000000000e+00 2.0000000000e+00 1.0000000000e-03
7.0000000000e+00 2.0000000000e+00 1.0000000000e-03
8.0000000000e+00 2.0000000000e+00 1.0000000000e-03
9.0000000000e+00 2.0000000000e+00 1.0000000000e-03
1.0000000000e+01 2.0000000000e+00 1.0000000000e-03
0.0000000000e+00 2.5000000000e+00 1.0000000000e-03
1.0000000000e+00 2.5000000000e+00 1.0000000000e-03
2.0000000000e+00 2.5000000000e+00 1.0000000000e-03
3.0000000000e+00 2.5000000000e+00 1.0000000000e-03
4.0000000000e+00 2.5000000000e+00 1.0000000000e-03
5.0000000000e+00 2.5000000000e+00 1.0000000000e-03
6.0000000000e+00 2.5000000000e+00 1.0000000000e-03
7.0000000000e+00 2.5000000000e+00 1.0000000000e-03
8.0000000000e+00 2.5000000000e+00 1.0000000000e-03
9.0000000000e+00 2.5000000000e+00 1.0000000000e-03
1.0000000000e+01 2.5000000000e+00 1.0000000000e-03
0.0000000000e+00 3.0000000000e+00 1.0000000000e-03
1.0000000000e+00 3.0000000000e+00 1.0000000000e-03
2.0000000000e+00 3.0000000000e+00 1.0000000000e-03
3.0000000000e+00 3.0000000000e+00 1.0000000000e-03
4.0000000000e+00 3.0000000000e+00 1.0000000000e-03
5.0000000000e+00 3.0000000000e+00 1.0000000000e-03
6.0000000000e+00 3.0000000000e+00 1.0000000000e-03
7.0000000000e+00 3.0000000000e+00 1.0000000000e-03
8.0000000000e+00 3.0000000000e+00 1.0000000000e-03
9.0000000000e+00 3.0000000000e+00 1.0000000000e-03
1.0000000000e+01 3.0000000000e+00 1.0000000000e-03
0.0000000000e+00 3.5000000000e+00 1.0000000000e-03
1.0000000000e+00 3.5000000000e+00 1.0000000000e-03
2.0000000000e+00 3.5000000000e+00 1.0000000000e-03
3.0000000000e+00 3.5000000000e+00 1.0000000000e-03
4.0000000000e+00 3.5000000000e+00 1.0000000000e-03
5.0000000000e+00 3.5000000000e+00 1.0000000000e-03
6.0000000000e+00 3.5000000000e+00 1.0000000000e-03
7.0000000000e+00 3.5000000000e+00 1.0000000000e-03
8.0000000000e+00 3.5000000000e+00 1.0000000000e-03
9.0000000000e+00 3.5000000000e+00 1.0000000000e-03
1.0000000000e+01 3.5000000000e+00 1.0000000000e-03
0.0000000000e+00 4.0000000000e+00 1.0000000000e-03
1.0000000000e+00 4.0000000000e+00 1.0000000000e-03
2.0000000000e+00 4.0000000000e+00 1.0000000000e-03
3.0000000000e+00 4.0000000000e+00 1.0000000000e-03
4.0000000000e+00 4.0000000000e+00 1.0000000000e-03
5.0000000000e+00 4.0000000000e+00 1.0000000000e-03
6.0000000000e+00 4.0000000000e+00 1.0000000000e-03
7.0000000000e+00 4.0000000000e+00 1.0000000000e-03
8.0000000000e+00 4.0000000000e+00 1.0000000000e-03
9.0000000000e+00 4.0000000000e+00 1.0000000000e-03
1.0000000000e+01 4.0000000000e+00 1.0000000000e-03
0.0000000000e+00 4.5000000000e+00 1.0000000000e-03
1.0000000000e+00 4.5000000000e+00 1.0000000000e-03
2.0000000000e+00 4.5000000000e+00 1.0000000000e-03
3.0000000000e+00 4.5000000000e+00 1.0000000000e-03
4.0000000000e+00 4.5000000000e+00 1.0000000000e-03
5.0000000000e+00 4.5000000000e+00 1.0000000000e-03
6.0000000000e+00 4.5000000000e+00 1.0000000000e-03
7.0000000000e+00 4.5000000000e+00 1.0000000000e-03
8.0000000000e+00 4.5000000000e+00 1.0000000000e-03
9.0000000000e+00 4.5000000000e+00 1.0000000000e-03
1.0000000000e+01 4.5000000000e+00 1.0000000000e-03
0.0000000000e+00 5.0000000000e+00 1.0000000000e-03
1.0000000000e+00 5.0000000000e+00 1.0000000000e-03
2.0000000000e+00 5.0000000000e+00 1.0000000000e-03
3.0000000000e+00 5.0000000000e+00 1.0000000000e-03
4.0000000000e+00 5.0000000000e+00 1.0000000000e-03
5.0000000000e+00 5.0000000000e+00 1.0000000000e-03
6.0000000000e+00 5.0000000000e+00 1.0000000000e-03
7.0000000000e+00 5.0000000000e+00 1.0000000000e-03
8.0000000000e+00 5.0000000000e+00 1.0000000000e-03
9.0000000000e+00 5.0000000000e+00 1.0000000000e-03
1.0000000000e+01 5.0000000000e+00 1.0000000000e-03

CELL_DATA 100
SCALARS scalar float
LOOKUP_TABLE default
1
2
3
4
5
6
7
8
9
10
2
4
6
8
10
12
14
16
18
20
3
6
9
12
15
18
21
24
27
30
4
8
12
16
20
24
28
32
36
40
5
10
15
20
25
30
35
40
45
50
6
12
18
24
30
36
42
48
54
60
7
14
21
28
35
42
49
56
63
70
8
16
24
32
40
48
56
64
72
80
9
18
27
36
45
54
63
72
81
90
10
20
30
40
50
60
70
80
90
100

VECTORS vector float
0.5 1 0.0
1 2 0.0
1 3 0.0
1 4 0.0
1 5 0.0
1 6 0.0
1 7 0.0
1 8 0.0
1 9 0.0
0.5 10 0.0
1 2 0.0
2 4 0.0
2 6 0.0
2 8 0.0
2 10 0.0
2 12 0.0
2 14 0.0
2 16 0.0
2 18 0.0
1 20 0.0
1.5 2 0.0
3 4 0.0
3 6 0.0
3 8 0.0
3 10 0.0
3 12 0.0
3 14 0.0
3 16 0.0
3 18 0.0
1.5 20 0.0
2 2 0.0
4 4 0.0
4 6 0.0
4 8 0.0
4 10 0.0
4 12 0.0
4 14 0.0
4 16 0.0
4 18 0.0
2 20 0.0
2.5 2 0.0
5 4 0.0
5 6 0.0
5 8 0.0
5 10 0.0
5 12 0.0
5 14 0.0
5 16 0.0
5 18 0.0
2.5 20 0.0
3 2 0.0
6 4 0.0
6 6 0.0
6 8 0.0
6 10 0.0
6 12 0.0
6 14 0.0
6 16 0.0
6 18 0.0
3 20 0.0
3.5 2 0.0
7 4 0.0
7 6 0.0
7 8 0.0
7 10 0.0
7 12 0.0
7 14 0.0
7 16 0.0
7 18 0.0
3.5 20 0.0
4 2 0.0
8 4 0.0
8 6 0.0
8 8 0.0
8 10 0.0
8 12 0.0
8 14 0.0
8 16 0.0
8 18 0.0
4 20 0.0
4.5 2 0.0
9 4 0.0
9 6 0.0
9 8 0.0
9 10 0.0
9 12 0.0
9 14 0.0
9 16 0.0
9 18 0.0
4.5 20 0.0
5 1 0.0
10 2 0.0
10 3 0.0
10 4 0.0
10 5 0.0
10 6 0.0
10 7 0.0
10 8 0.0
10 9 0.0
5 10 0.0


SCALARS divergence float
LOOKUP_TABLE default
6.5
18.5
38.2
66.1429
102.111
146.091
198.077
258.067
323.412
396
15
30
53.8
88.5714
133.444
188.364
253.308
328.267
402.647
484
26.5
38.5
55.8
83.2857
119
162.818
214.692
274.6
318.706
364
44
56
71.2
98.2857
133.778
177.455
229.231
289.067
314.588
336
66.5
78.5
91
117.571
152.778
196.273
247.923
307.667
309.294
300
94
106
115.2
141.143
176
219.273
270.769
330.4
302.824
256
126.5
138.5
143.8
169
203.444
246.455
297.769
357.267
295.176
204
164
176
176.8
201.143
235.111
277.818
328.923
388.267
286.353
144
196.5
178.5
124.2
77.5714
21
-46.6364
-125.769
-216.6
-533.647
-924
232
178
58
-73.7143
-238.889
-438.909
-674.308
-945.333
-1516.82
-2200

