# vtk DataFile Version 2.0
Blank
ASCII
DATASET STRUCTURED_GRID
DIMENSIONS 101 101 2
POINTS 20402 float
0.0000000000e+00 0.0000000000e+00 0.0000000000e+00
1.0000000000e-02 0.0000000000e+00 0.0000000000e+00
2.0000000000e-02 0.0000000000e+00 0.0000000000e+00
3.0000000000e-02 0.0000000000e+00 0.0000000000e+00
4.0000000000e-02 0.0000000000e+00 0.0000000000e+00
5.0000000000e-02 0.0000000000e+00 0.0000000000e+00
6.0000000000e-02 0.0000000000e+00 0.0000000000e+00
7.0000000000e-02 0.0000000000e+00 0.0000000000e+00
8.0000000000e-02 0.0000000000e+00 0.0000000000e+00
9.0000000000e-02 0.0000000000e+00 0.0000000000e+00
1.0000000000e-01 0.0000000000e+00 0.0000000000e+00
1.1000000000e-01 0.0000000000e+00 0.0000000000e+00
1.2000000000e-01 0.0000000000e+00 0.0000000000e+00
1.3000000000e-01 0.0000000000e+00 0.0000000000e+00
1.4000000000e-01 0.0000000000e+00 0.0000000000e+00
1.5000000000e-01 0.0000000000e+00 0.0000000000e+00
1.6000000000e-01 0.0000000000e+00 0.0000000000e+00
1.7000000000e-01 0.0000000000e+00 0.0000000000e+00
1.8000000000e-01 0.0000000000e+00 0.0000000000e+00
1.9000000000e-01 0.0000000000e+00 0.0000000000e+00
2.0000000000e-01 0.0000000000e+00 0.0000000000e+00
2.1000000000e-01 0.0000000000e+00 0.0000000000e+00
2.2000000000e-01 0.0000000000e+00 0.0000000000e+00
2.3000000000e-01 0.0000000000e+00 0.0000000000e+00
2.4000000000e-01 0.0000000000e+00 0.0000000000e+00
2.5000000000e-01 0.0000000000e+00 0.0000000000e+00
2.6000000000e-01 0.0000000000e+00 0.0000000000e+00
2.7000000000e-01 0.0000000000e+00 0.0000000000e+00
2.8000000000e-01 0.0000000000e+00 0.0000000000e+00
2.9000000000e-01 0.0000000000e+00 0.0000000000e+00
3.0000000000e-01 0.0000000000e+00 0.0000000000e+00
3.1000000000e-01 0.0000000000e+00 0.0000000000e+00
3.2000000000e-01 0.0000000000e+00 0.0000000000e+00
3.3000000000e-01 0.0000000000e+00 0.0000000000e+00
3.4000000000e-01 0.0000000000e+00 0.0000000000e+00
3.5000000000e-01 0.0000000000e+00 0.0000000000e+00
3.6000000000e-01 0.0000000000e+00 0.0000000000e+00
3.7000000000e-01 0.0000000000e+00 0.0000000000e+00
3.8000000000e-01 0.0000000000e+00 0.0000000000e+00
3.9000000000e-01 0.0000000000e+00 0.0000000000e+00
4.0000000000e-01 0.0000000000e+00 0.0000000000e+00
4.1000000000e-01 0.0000000000e+00 0.0000000000e+00
4.2000000000e-01 0.0000000000e+00 0.0000000000e+00
4.3000000000e-01 0.0000000000e+00 0.0000000000e+00
4.4000000000e-01 0.0000000000e+00 0.0000000000e+00
4.5000000000e-01 0.0000000000e+00 0.0000000000e+00
4.6000000000e-01 0.0000000000e+00 0.0000000000e+00
4.7000000000e-01 0.0000000000e+00 0.0000000000e+00
4.8000000000e-01 0.0000000000e+00 0.0000000000e+00
4.9000000000e-01 0.0000000000e+00 0.0000000000e+00
5.0000000000e-01 0.0000000000e+00 0.0000000000e+00
5.1000000000e-01 0.0000000000e+00 0.0000000000e+00
5.2000000000e-01 0.0000000000e+00 0.0000000000e+00
5.3000000000e-01 0.0000000000e+00 0.0000000000e+00
5.4000000000e-01 0.0000000000e+00 0.0000000000e+00
5.5000000000e-01 0.0000000000e+00 0.0000000000e+00
5.6000000000e-01 0.0000000000e+00 0.0000000000e+00
5.7000000000e-01 0.0000000000e+00 0.0000000000e+00
5.8000000000e-01 0.0000000000e+00 0.0000000000e+00
5.9000000000e-01 0.0000000000e+00 0.0000000000e+00
6.0000000000e-01 0.0000000000e+00 0.0000000000e+00
6.1000000000e-01 0.0000000000e+00 0.0000000000e+00
6.2000000000e-01 0.0000000000e+00 0.0000000000e+00
6.3000000000e-01 0.0000000000e+00 0.0000000000e+00
6.4000000000e-01 0.0000000000e+00 0.0000000000e+00
6.5000000000e-01 0.0000000000e+00 0.0000000000e+00
6.6000000000e-01 0.0000000000e+00 0.0000000000e+00
6.7000000000e-01 0.0000000000e+00 0.0000000000e+00
6.8000000000e-01 0.0000000000e+00 0.0000000000e+00
6.9000000000e-01 0.0000000000e+00 0.0000000000e+00
7.0000000000e-01 0.0000000000e+00 0.0000000000e+00
7.1000000000e-01 0.0000000000e+00 0.0000000000e+00
7.2000000000e-01 0.0000000000e+00 0.0000000000e+00
7.3000000000e-01 0.0000000000e+00 0.0000000000e+00
7.4000000000e-01 0.0000000000e+00 0.0000000000e+00
7.5000000000e-01 0.0000000000e+00 0.0000000000e+00
7.6000000000e-01 0.0000000000e+00 0.0000000000e+00
7.7000000000e-01 0.0000000000e+00 0.0000000000e+00
7.8000000000e-01 0.0000000000e+00 0.0000000000e+00
7.9000000000e-01 0.0000000000e+00 0.0000000000e+00
8.0000000000e-01 0.0000000000e+00 0.0000000000e+00
8.1000000000e-01 0.0000000000e+00 0.0000000000e+00
8.2000000000e-01 0.0000000000e+00 0.0000000000e+00
8.3000000000e-01 0.0000000000e+00 0.0000000000e+00
8.4000000000e-01 0.0000000000e+00 0.0000000000e+00
8.5000000000e-01 0.0000000000e+00 0.0000000000e+00
8.6000000000e-01 0.0000000000e+00 0.0000000000e+00
8.7000000000e-01 0.0000000000e+00 0.0000000000e+00
8.8000000000e-01 0.0000000000e+00 0.0000000000e+00
8.9000000000e-01 0.0000000000e+00 0.0000000000e+00
9.0000000000e-01 0.0000000000e+00 0.0000000000e+00
9.1000000000e-01 0.0000000000e+00 0.0000000000e+00
9.2000000000e-01 0.0000000000e+00 0.0000000000e+00
9.3000000000e-01 0.0000000000e+00 0.0000000000e+00
9.4000000000e-01 0.0000000000e+00 0.0000000000e+00
9.5000000000e-01 0.0000000000e+00 0.0000000000e+00
9.6000000000e-01 0.0000000000e+00 0.0000000000e+00
9.7000000000e-01 0.0000000000e+00 0.0000000000e+00
9.8000000000e-01 0.0000000000e+00 0.0000000000e+00
9.9000000000e-01 0.0000000000e+00 0.0000000000e+00
1.0000000000e+00 0.0000000000e+00 0.0000000000e+00
0.0000000000e+00 1.0000000000e-02 0.0000000000e+00
1.0000000000e-02 1.0000000000e-02 0.0000000000e+00
2.0000000000e-02 1.0000000000e-02 0.0000000000e+00
3.0000000000e-02 1.0000000000e-02 0.0000000000e+00
4.0000000000e-02 1.0000000000e-02 0.0000000000e+00
5.0000000000e-02 1.0000000000e-02 0.0000000000e+00
6.0000000000e-02 1.0000000000e-02 0.0000000000e+00
7.0000000000e-02 1.0000000000e-02 0.0000000000e+00
8.0000000000e-02 1.0000000000e-02 0.0000000000e+00
9.0000000000e-02 1.0000000000e-02 0.0000000000e+00
1.0000000000e-01 1.0000000000e-02 0.0000000000e+00
1.1000000000e-01 1.0000000000e-02 0.0000000000e+00
1.2000000000e-01 1.0000000000e-02 0.0000000000e+00
1.3000000000e-01 1.0000000000e-02 0.0000000000e+00
1.4000000000e-01 1.0000000000e-02 0.0000000000e+00
1.5000000000e-01 1.0000000000e-02 0.0000000000e+00
1.6000000000e-01 1.0000000000e-02 0.0000000000e+00
1.7000000000e-01 1.0000000000e-02 0.0000000000e+00
1.8000000000e-01 1.0000000000e-02 0.0000000000e+00
1.9000000000e-01 1.0000000000e-02 0.0000000000e+00
2.0000000000e-01 1.0000000000e-02 0.0000000000e+00
2.1000000000e-01 1.0000000000e-02 0.0000000000e+00
2.2000000000e-01 1.0000000000e-02 0.0000000000e+00
2.3000000000e-01 1.0000000000e-02 0.0000000000e+00
2.4000000000e-01 1.0000000000e-02 0.0000000000e+00
2.5000000000e-01 1.0000000000e-02 0.0000000000e+00
2.6000000000e-01 1.0000000000e-02 0.0000000000e+00
2.7000000000e-01 1.0000000000e-02 0.0000000000e+00
2.8000000000e-01 1.0000000000e-02 0.0000000000e+00
2.9000000000e-01 1.0000000000e-02 0.0000000000e+00
3.0000000000e-01 1.0000000000e-02 0.0000000000e+00
3.1000000000e-01 1.0000000000e-02 0.0000000000e+00
3.2000000000e-01 1.0000000000e-02 0.0000000000e+00
3.3000000000e-01 1.0000000000e-02 0.0000000000e+00
3.4000000000e-01 1.0000000000e-02 0.0000000000e+00
3.5000000000e-01 1.0000000000e-02 0.0000000000e+00
3.6000000000e-01 1.0000000000e-02 0.0000000000e+00
3.7000000000e-01 1.0000000000e-02 0.0000000000e+00
3.8000000000e-01 1.0000000000e-02 0.0000000000e+00
3.9000000000e-01 1.0000000000e-02 0.0000000000e+00
4.0000000000e-01 1.0000000000e-02 0.0000000000e+00
4.1000000000e-01 1.0000000000e-02 0.0000000000e+00
4.2000000000e-01 1.0000000000e-02 0.0000000000e+00
4.3000000000e-01 1.0000000000e-02 0.0000000000e+00
4.4000000000e-01 1.0000000000e-02 0.0000000000e+00
4.5000000000e-01 1.0000000000e-02 0.0000000000e+00
4.6000000000e-01 1.0000000000e-02 0.0000000000e+00
4.7000000000e-01 1.0000000000e-02 0.0000000000e+00
4.8000000000e-01 1.0000000000e-02 0.0000000000e+00
4.9000000000e-01 1.0000000000e-02 0.0000000000e+00
5.0000000000e-01 1.0000000000e-02 0.0000000000e+00
5.1000000000e-01 1.0000000000e-02 0.0000000000e+00
5.2000000000e-01 1.0000000000e-02 0.0000000000e+00
5.3000000000e-01 1.0000000000e-02 0.0000000000e+00
5.4000000000e-01 1.0000000000e-02 0.0000000000e+00
5.5000000000e-01 1.0000000000e-02 0.0000000000e+00
5.6000000000e-01 1.0000000000e-02 0.0000000000e+00
5.7000000000e-01 1.0000000000e-02 0.0000000000e+00
5.8000000000e-01 1.0000000000e-02 0.0000000000e+00
5.9000000000e-01 1.0000000000e-02 0.0000000000e+00
6.0000000000e-01 1.0000000000e-02 0.0000000000e+00
6.1000000000e-01 1.0000000000e-02 0.0000000000e+00
6.2000000000e-01 1.0000000000e-02 0.0000000000e+00
6.3000000000e-01 1.0000000000e-02 0.0000000000e+00
6.4000000000e-01 1.0000000000e-02 0.0000000000e+00
6.5000000000e-01 1.0000000000e-02 0.0000000000e+00
6.6000000000e-01 1.0000000000e-02 0.0000000000e+00
6.7000000000e-01 1.0000000000e-02 0.0000000000e+00
6.8000000000e-01 1.0000000000e-02 0.0000000000e+00
6.9000000000e-01 1.0000000000e-02 0.0000000000e+00
7.0000000000e-01 1.0000000000e-02 0.0000000000e+00
7.1000000000e-01 1.0000000000e-02 0.0000000000e+00
7.2000000000e-01 1.0000000000e-02 0.0000000000e+00
7.3000000000e-01 1.0000000000e-02 0.0000000000e+00
7.4000000000e-01 1.0000000000e-02 0.0000000000e+00
7.5000000000e-01 1.0000000000e-02 0.0000000000e+00
7.6000000000e-01 1.0000000000e-02 0.0000000000e+00
7.7000000000e-01 1.0000000000e-02 0.0000000000e+00
7.8000000000e-01 1.0000000000e-02 0.0000000000e+00
7.9000000000e-01 1.0000000000e-02 0.0000000000e+00
8.0000000000e-01 1.0000000000e-02 0.0000000000e+00
8.1000000000e-01 1.0000000000e-02 0.0000000000e+00
8.2000000000e-01 1.0000000000e-02 0.0000000000e+00
8.3000000000e-01 1.0000000000e-02 0.0000000000e+00
8.4000000000e-01 1.0000000000e-02 0.0000000000e+00
8.5000000000e-01 1.0000000000e-02 0.0000000000e+00
8.6000000000e-01 1.0000000000e-02 0.0000000000e+00
8.7000000000e-01 1.0000000000e-02 0.0000000000e+00
8.8000000000e-01 1.0000000000e-02 0.0000000000e+00
8.9000000000e-01 1.0000000000e-02 0.0000000000e+00
9.0000000000e-01 1.0000000000e-02 0.0000000000e+00
9.1000000000e-01 1.0000000000e-02 0.0000000000e+00
9.2000000000e-01 1.0000000000e-02 0.0000000000e+00
[...]
CELL_DATA 10000

SCALARS massDensity float
LOOKUP_TABLE default
1.2009940510e+00
1.2010057879e+00
1.2010301885e+00
1.2010659487e+00
1.2011126981e+00
1.2011699577e+00
1.2012371447e+00
1.2013135823e+00
1.2013985104e+00
1.2014910992e+00
1.2015904621e+00
1.2016956708e+00
1.2018057687e+00
1.2019197870e+00
1.2020367569e+00
1.2021557247e+00
1.2022757631e+00
1.2023959835e+00
1.2025155455e+00
1.2026336665e+00
1.2027496275e+00
1.2028627808e+00
1.2029725520e+00
1.2030784442e+00
1.2031800379e+00
1.2032769918e+00
1.2033690399e+00
1.2034559899e+00
1.2035377183e+00
1.2036141673e+00
1.2036853378e+00
1.2037512853e+00
1.2038121125e+00
1.2038679639e+00
1.2039190190e+00
1.2039654867e+00
1.2040075985e+00
1.2040456035e+00
1.2040797626e+00
1.2041103439e+00
1.2041376181e+00
1.2041618548e+00
1.2041833186e+00
1.2042022668e+00
1.2042189465e+00
1.2042335926e+00
1.2042464266e+00
1.2042576555e+00
1.2042674704e+00
1.2042760469e+00
1.2042835442e+00
1.2042901060e+00
1.2042958599e+00
1.2043009189e+00
1.2043053811e+00
1.2043093313e+00
1.2043128413e+00
1.2043159713e+00
1.2043187705e+00
1.2043212786e+00
1.2043235264e+00
1.2043255374e+00
1.2043273285e+00
1.2043289114e+00
1.2043302933e+00
1.2043314782e+00
1.2043324676e+00
1.2043332618e+00
1.2043338600e+00
1.2043342620e+00
1.2043344677e+00
1.2043344787e+00
1.2043342979e+00
1.2043339302e+00
1.2043333827e+00
1.2043326646e+00
1.2043317872e+00
1.2043307640e+00
1.2043296103e+00
1.2043283433e+00
1.2043269811e+00
1.2043255432e+00
1.2043240494e+00
1.2043225201e+00
1.2043209754e+00
1.2043194348e+00
1.2043179170e+00
1.2043164398e+00
1.2043150193e+00
1.2043136702e+00
1.2043124061e+00
1.2043112392e+00
1.2043101817e+00
1.2043092465e+00
1.2043084488e+00
1.2043078082e+00
1.2043073504e+00
1.2043071088e+00
1.2043071222e+00
1.2043045947e+00
1.2010057879e+00
1.2010170469e+00
1.2010410984e+00
1.2010764826e+00
1.2011228310e+00
1.2011796649e+00
1.2012464037e+00
1.2013223728e+00
1.2014068160e+00
1.2014989070e+00
1.2015977640e+00
1.2017024623e+00
1.2018120506e+00
1.2019255633e+00
1.2020420364e+00
1.2021605190e+00
1.2022800879e+00
1.2023998567e+00
1.2025189879e+00
1.2026367003e+00
1.2027522772e+00
1.2028650712e+00
1.2029745093e+00
1.2030800945e+00
1.2031814077e+00
1.2032781067e+00
1.2033699254e+00
1.2034566700e+00
1.2035382166e+00
1.2036145052e+00
1.2036855360e+00
1.2037513619e+00
1.2038120844e+00
1.2038678456e+00
1.2039188233e+00
1.2039652238e+00
1.2040072766e+00
1.2040452284e+00
1.2040793378e+00
1.2041098706e+00
1.2041370952e+00
1.2041612788e+00
1.2041826841e+00
1.2042015660e+00
1.2042181699e+00
1.2042327289e+00
1.2042454631e+00
1.2042565782e+00
1.2042662646e+00
1.2042746973e+00
1.2042820356e+00
1.2042884235e+00
1.2042939897e+00
1.2042988483e+00
1.2043030997e+00
1.2043068309e+00
1.2043101167e+00
1.2043130205e+00
1.2043155955e+00
1.2043178852e+00
1.2043199248e+00
1.2043217421e+00
1.2043233586e+00
1.2043247901e+00
1.2043260480e+00
1.2043271399e+00
1.2043280709e+00
1.2043288437e+00
1.2043294599e+00
1.2043299205e+00
1.2043302263e+00
1.2043303785e+00
1.2043303793e+00
1.2043302319e+00
1.2043299409e+00
1.2043295126e+00
1.2043289546e+00
1.2043282765e+00
1.2043274892e+00
1.2043266050e+00
1.2043256373e+00
1.2043246006e+00
1.2043235101e+00
1.2043223813e+00
1.2043212297e+00
1.2043200710e+00
1.2043189199e+00
1.2043177907e+00
1.2043166967e+00
1.2043156502e+00
1.2043146624e+00
1.2043137435e+00
1.2043129033e+00
1.2043121510e+00
1.2043114959e+00
1.2043109478e+00
1.2043105161e+00
1.2043102084e+00
1.2043100245e+00
1.2043070460e+00
1.2010301885e+00
1.2010410984e+00
1.2010649268e+00
1.2011000122e+00
1.2011459856e+00
1.2012023708e+00
1.2012685892e+00
1.2013439714e+00
1.2014277658e+00
1.2015191528e+00
1.2016172564e+00
1.2017211601e+00
1.2018299186e+00
1.2019425749e+00
1.2020581713e+00
1.2021757652e+00
1.2022944390e+00
1.2024133141e+00
1.2025315582e+00
1.2026483966e+00
1.2027631170e+00
1.2028750774e+00
1.2029837079e+00
1.2030885158e+00
1.2031890842e+00
1.2032850737e+00
1.2033762193e+00
1.2034623290e+00
1.2035432790e+00
1.2036190102e+00
1.2036895217e+00
1.2037548669e+00
1.2038151456e+00
1.2038704993e+00
1.2039211040e+00
1.2039671648e+00
1.2040089092e+00
1.2040465824e+00
1.2040804409e+00
1.2041107489e+00
1.2041377726e+00
1.2041617775e+00
1.2041830244e+00
1.2042017666e+00
1.2042182476e+00
1.2042326992e+00
1.2042453399e+00
1.2042563741e+00
1.2042659910e+00
1.2042743645e+00
1.2042816530e+00
1.2042879996e+00
1.2042935324e+00
1.2042983651e+00
1.2043025975e+00
1.2043063163e+00
1.2043095961e+00
1.2043125002e+00
1.2043150817e+00
1.2043173840e+00
1.2043194423e+00
1.2043212845e+00
1.2043229317e+00
1.2043243998e+00
1.2043256999e+00
1.2043268393e+00
1.2043278227e+00
1.2043286522e+00
1.2043293289e+00
1.2043298528e+00
1.2043302241e+00
1.2043304428e+00
1.2043305103e+00
1.2043304287e+00
1.2043302015e+00
1.2043298341e+00
1.2043293332e+00
1.2043287074e+00
1.2043279670e+00
1.2043271235e+00
1.2043261901e+00
1.2043251808e+00
1.2043241108e+00
1.2043229954e+00
1.2043218506e+00
1.2043206918e+00
1.2043195346e+00
1.2043183935e+00
1.2043172825e+00
1.2043162144e+00
1.2043152008e+00
1.2043142525e+00
1.2043133790e+00
1.2043125888e+00
1.2043118894e+00
1.2043112865e+00
1.2043107836e+00
1.2043103788e+00
1.2043100596e+00
1.2043068334e+00
1.2010659487e+00
1.2010764826e+00
1.2011000122e+00
1.2011346783e+00
1.2011801169e+00
1.2012358555e+00
1.2013013225e+00
1.2013758544e+00
1.2014587086e+00
1.2015490735e+00
1.2016460839e+00
1.2017488322e+00
1.2018563850e+00
1.2019677946e+00
1.2020821151e+00
1.2021984131e+00
1.2023157823e+00
1.2024333525e+00
1.2025503017e+00
1.2026658622e+00
1.2027793306e+00
1.2028900704e+00
1.2029975192e+00
1.2031011879e+00
1.2032006651e+00
1.2032956138e+00
1.2033857726e+00
1.2034709505e+00
1.2035510256e+00
1.2036259383e+00
1.2036956885e+00
1.2037603279e+00
1.2038199558e+00
1.2038747116e+00
1.2039247697e+00
1.2039703325e+00
1.2040116255e+00
1.2040488907e+00
1.2040823824e+00
1.2041123614e+00
1.2041390918e+00
1.2041628358e+00
1.2041838517e+00
1.2042023901e+00
1.2042186922e+00
1.2042329871e+00
1.2042454915e+00
1.2042564075e+00
1.2042659226e+00
1.2042742089e+00
1.2042814235e+00
1.2042877081e+00
1.2042931898e+00
1.2042979812e+00
1.2043021813e+00
1.2043058764e+00
1.2043091405e+00
1.2043120365e+00
1.2043146172e+00
1.2043169258e+00
1.2043189974e+00
1.2043208595e+00
1.2043225332e+00
1.2043240340e+00
1.2043253728e+00
1.2043265566e+00
1.2043275893e+00
1.2043284728e+00
1.2043292073e+00
1.2043297921e+00
1.2043302263e+00
1.2043305094e+00
1.2043306413e+00
1.2043306233e+00
1.2043304579e+00
1.2043301493e+00
1.2043297035e+00
1.2043291281e+00
1.2043284325e+00
1.2043276280e+00
1.2043267270e+00
1.2043257433e+00
1.2043246918e+00
1.2043235881e+00
1.2043224479e+00
1.2043212873e+00
1.2043201220e+00
1.2043189670e+00
1.2043178369e+00
1.2043167448e+00
1.2043157031e+00
1.2043147226e+00
1.2043138128e+00
1.2043129817e+00
1.2043122354e+00
1.2043115778e+00
1.2043110090e+00
1.2043105241e+00
1.2043101091e+00
1.2043067343e+00
1.2011126981e+00
1.2011228310e+00
1.2011459856e+00
1.2011801169e+00
1.2012248661e+00
1.2012797689e+00
1.2013442609e+00
1.2014176893e+00
1.2014993212e+00
1.2015883579e+00
1.2016839455e+00
1.2017851911e+00
1.2018911734e+00
1.2020009601e+00
1.2021136175e+00
1.2022282272e+00
1.2023438947e+00
1.2024597635e+00
1.2025750221e+00
1.2026889151e+00
1.2028007478e+00
1.2029098940e+00
1.2030157977e+00
1.2031179780e+00
1.2032160279e+00
1.2033096162e+00
1.2033984837e+00
1.2034824431e+00
1.2035613729e+00
1.2036352152e+00
1.2037039686e+00
1.2037676849e+00
1.2038264610e+00
1.2038804348e+00
1.2039297776e+00
1.2039746893e+00
1.2040153917e+00
1.2040521238e+00
1.2040851358e+00
1.2041146854e+00
1.2041410324e+00
1.2041644359e+00
1.2041851502e+00
1.2042034228e+00
1.2042194912e+00
1.2042335819e+00
1.2042459083e+00
1.2042566699e+00
1.2042660517e+00
1.2042742238e+00
1.2042813410e+00
1.2042875435e+00
1.2042929566e+00
1.2042976918e+00
1.2043018470e+00
1.2043055075e+00
1.2043087465e+00
1.2043116264e+00
1.2043141993e+00
1.2043165083e+00
1.2043185878e+00
1.2043204653e+00
1.2043221614e+00
1.2043236913e+00
1.2043250655e+00
1.2043262906e+00
1.2043273700e+00
1.2043283049e+00
1.2043290947e+00
1.2043297380e+00
1.2043302330e+00
1.2043305780e+00
1.2043307723e+00
1.2043308158e+00
1.2043307101e+00
1.2043304584e+00
1.2043300656e+00
1.2043295386e+00
1.2043288861e+00
1.2043281186e+00
1.2043272480e+00
1.2043262881e+00
1.2043252533e+00
1.2043241593e+00
1.2043230221e+00
1.2043218578e+00
1.2043206825e+00
1.2043195119e+00
1.2043183609e+00
1.2043172432e+00
1.2043161715e+00
1.2043151570e+00
1.2043142094e+00
1.2043133364e+00
1.2043125436e+00
1.2043118340e+00
1.2043112070e+00
1.2043106575e+00
1.2043101738e+00
1.2043067100e+00
1.2011699577e+00
1.2011796649e+00
1.2012023708e+00
1.2012358555e+00
1.2012797689e+00
1.2013336545e+00
1.2013969596e+00
1.2014690421e+00
1.2015491835e+00
1.2016365984e+00
1.2017304499e+00
1.2018298595e+00
1.2019339244e+00
1.2020417272e+00
1.2021523529e+00
1.2022648979e+00
1.2023784853e+00
1.2024922724e+00
1.2026054636e+00
1.2027173154e+00
1.2028271468e+00
1.2029343412e+00
1.2030383536e+00
1.2031387103e+00
1.2032350125e+00
1.2033269333e+00
1.2034142193e+00
1.2034966848e+00
1.2035742115e+00
1.2036467412e+00
1.2037142734e+00
1.2037768577e+00
1.2038345900e+00
1.2038876049e+00
1.2039360712e+00
1.2039801846e+00
1.2040201635e+00
1.2040562421e+00
1.2040886667e+00
1.2041176900e+00
1.2041435677e+00
1.2041665540e+00
1.2041868992e+00
1.2042048461e+00
1.2042206287e+00
1.2042344692e+00
1.2042465776e+00
1.2042571500e+00
1.2042663685e+00
1.2042744003e+00
1.2042813977e+00
1.2042874987e+00
1.2042928267e+00
1.2042974915e+00
1.2043015897e+00
1.2043052050e+00
1.2043084101e+00
1.2043112662e+00
1.2043138249e+00
1.2043161284e+00
1.2043182111e+00
1.2043200996e+00
1.2043218144e+00
1.2043233701e+00
1.2043247768e+00
1.2043260404e+00
1.2043271639e+00
1.2043281477e+00
1.2043289906e+00
1.2043296901e+00
1.2043302437e+00
1.2043306488e+00
1.2043309032e+00
1.2043310062e+00
1.2043309582e+00
1.2043307613e+00
1.2043304197e+00
1.2043299392e+00
1.2043293277e+00
1.2043285953e+00
1.2043277534e+00
1.2043268153e+00
1.2043257955e+00
1.2043247094e+00
1.2043235734e+00
1.2043224037e+00
1.2043212170e+00
1.2043200292e+00
1.2043188557e+00
1.2043177110e+00
1.2043166082e+00
1.2043155588e+00
1.2043145728e+00
1.2043136582e+00
1.2043128205e+00
1.2043120629e+00
1.2043113850e+00
1.2043107830e+00
1.2043102483e+00
1.2043067305e+00
1.2012371447e+00
1.2012464037e+00
1.2012685892e+00
1.2013013225e+00
1.2013442609e+00
1.2013969596e+00
1.2014588770e+00
1.2015293862e+00
1.2016077832e+00
1.2016933011e+00
1.2017851193e+00
1.2018823803e+00
1.2019841986e+00
1.2020896787e+00
1.2021979233e+00
1.2023080498e+00
1.2024191984e+00
1.2025305462e+00
1.2026413126e+00
1.2027507716e+00
1.2028582550e+00
1.2029631607e+00
1.2030649536e+00
1.2031631713e+00
1.2032574216e+00
1.2033473861e+00
1.2034328148e+00
1.2035135273e+00
1.2035894060e+00
1.2036603951e+00
1.2037264927e+00
1.2037877482e+00
1.2038442544e+00
1.2038961436e+00
1.2039435803e+00
1.2039867567e+00
1.2040258858e+00
1.2040611974e+00
1.2040929321e+00
1.2041213378e+00
1.2041466643e+00
1.2041691611e+00
1.2041890729e+00
1.2042066379e+00
1.2042220849e+00
1.2042356318e+00
1.2042474843e+00
1.2042578347e+00
1.2042668613e+00
1.2042747280e+00
1.2042815844e+00
1.2042875657e+00
1.2042927929e+00
1.2042973740e+00
1.2043014035e+00
1.2043049640e+00
1.2043081267e+00
1.2043109519e+00
1.2043134902e+00
1.2043157832e+00
1.2043178644e+00
1.2043197601e+00
1.2043214901e+00
1.2043230685e+00
1.2043245049e+00
1.2043258046e+00
1.2043269698e+00
1.2043280004e+00
1.2043288942e+00
1.2043296481e+00
1.2043302583e+00
1.2043307212e+00
1.2043310340e+00
1.2043311945e+00
1.2043312022e+00
1.2043310582e+00
1.2043307657e+00
1.2043303297e+00
1.2043297575e+00
1.2043290582e+00
1.2043282432e+00
1.2043273251e+00
1.2043263184e+00
1.2043252386e+00
1.2043241021e+00
1.2043229256e+00
1.2043217259e+00
1.2043205195e+00
1.2043193225e+00
1.2043181498e+00
1.2043170150e+00
1.2043159302e+00
1.2043149060e+00
1.2043139507e+00
1.2043130703e+00
1.2043122685e+00
1.2043115460e+00
1.2043109003e+00
1.2043103262e+00
1.2043067736e+00
1.2013135823e+00
1.2013223728e+00
1.2013439714e+00
1.2013758544e+00
1.2014176893e+00
1.2014690421e+00
1.2015293862e+00
1.2015981096e+00
1.2016745275e+00
1.2017578906e+00
1.2018474010e+00
1.2019422204e+00
1.2020414878e+00
1.2021443278e+00
1.2022498676e+00
1.2023572445e+00
1.2024656221e+00
1.2025741956e+00
1.2026822060e+00
1.2027889432e+00
1.2028937570e+00
1.2029960585e+00
1.2030953272e+00
1.2031911103e+00
1.2032830268e+00
1.2033707641e+00
1.2034540797e+00
1.2035327961e+00
1.2036067996e+00
1.2036760342e+00
1.2037404991e+00
1.2038002412e+00
1.2038553519e+00
1.2039059591e+00
1.2039522239e+00
1.2039943329e+00
1.2040324947e+00
1.2040669327e+00
1.2040978823e+00
1.2041255846e+00
1.2041502839e+00
1.2041722233e+00
1.2041916420e+00
1.2042087720e+00
1.2042238371e+00
1.2042370498e+00
1.2042486110e+00
1.2042587086e+00
1.2042675166e+00
1.2042751953e+00
1.2042818909e+00
1.2042877353e+00
1.2042928472e+00
1.2042973319e+00
1.2043012822e+00
1.2043047789e+00
1.2043078915e+00
1.2043106791e+00
1.2043131915e+00
1.2043154691e+00
1.2043175448e+00
1.2043194441e+00
1.2043211862e+00
1.2043227846e+00
1.2043242482e+00
1.2043255817e+00
1.2043267867e+00
1.2043278620e+00
1.2043288049e+00
1.2043296111e+00
1.2043302761e+00
1.2043307952e+00
1.2043311643e+00
1.2043313804e+00
1.2043314420e+00
1.2043313490e+00
1.2043311037e+00
1.2043307104e+00
1.2043301754e+00
1.2043295075e+00
1.2043287174e+00
1.2043278176e+00
1.2043268223e+00
1.2043257472e+00
1.2043246086e+00
1.2043234237e+00
1.2043222097e+00
1.2043209837e+00
1.2043197622e+00
1.2043185606e+00
1.2043173934e+00
1.2043162733e+00
1.2043152113e+00
1.2043142164e+00
1.2043132955e+00
1.2043124529e+00
1.2043116905e+00
1.2043110076e+00
1.2043104012e+00
1.2043068238e+00
1.2013985104e+00
1.2014068160e+00
1.2014277658e+00
1.2014587086e+00
1.2014993212e+00
1.2015491835e+00
1.2016077832e+00
1.2016745275e+00
1.2017487496e+00
1.2018297237e+00
1.2019166725e+00
1.2020087840e+00
1.2021052193e+00
1.2022051302e+00
1.2023076663e+00
1.2024119918e+00
1.2025172915e+00
1.2026227855e+00
1.2027277340e+00
1.2028314489e+00
1.2029332963e+00
1.2030327054e+00
1.2031291686e+00
1.2032222472e+00
1.2033115691e+00
1.2033968318e+00
1.2034777980e+00
1.2035542961e+00
1.2036262142e+00
1.2036934989e+00
1.2037561479e+00
1.2038142078e+00
1.2038677661e+00
1.2039169481e+00
1.2039619093e+00
1.2040028319e+00
1.2040399177e+00
1.2040733846e+00
1.2041034607e+00
1.2041303811e+00
1.2041543829e+00
1.2041757027e+00
1.2041945728e+00
1.2042112195e+00
1.2042258598e+00
1.2042387010e+00
1.2042499383e+00
1.2042597547e+00
1.2042683197e+00
1.2042757892e+00
1.2042823055e+00
1.2042879976e+00
1.2042929807e+00
1.2042973577e+00
1.2043012191e+00
1.2043046435e+00
1.2043076990e+00
1.2043104433e+00
1.2043129246e+00
1.2043151826e+00
1.2043172491e+00
1.2043191489e+00
1.2043209003e+00
1.2043225163e+00
1.2043240049e+00
1.2043253703e+00
1.2043266131e+00
1.2043277315e+00
1.2043287217e+00
1.2043295786e+00
1.2043302966e+00
1.2043308701e+00
1.2043312939e+00
1.2043315639e+00
1.2043316774e+00
1.2043316336e+00
1.2043314337e+00
1.2043310811e+00
1.2043305815e+00
1.2043299431e+00
1.2043291761e+00
1.2043282928e+00
1.2043273073e+00
1.2043262352e+00
1.2043250932e+00
1.2043238986e+00
1.2043226692e+00
1.2043214224e+00
1.2043201755e+00
1.2043189446e+00
1.2043177446e+00
1.2043165892e+00
1.2043154900e+00
1.2043144568e+00
1.2043134972e+00
1.2043126166e+00
1.2043118180e+00
1.2043111023e+00
1.2043104683e+00
1.2043068696e+00
1.2014910992e+00
1.2014989070e+00
1.2015191528e+00
1.2015490735e+00
1.2015883579e+00
1.2016365984e+00
1.2016933011e+00
1.2017578906e+00
1.2018297237e+00
1.2019080957e+00
1.2019922566e+00
1.2020814179e+00
1.2021747699e+00
1.2022714890e+00
1.2023707543e+00
1.2024717539e+00
1.2025737010e+00
1.2026758380e+00
1.2027774505e+00
1.2028778701e+00
1.2029764849e+00
1.2030727398e+00
1.2031661451e+00
1.2032562738e+00
1.2033427671e+00
1.2034253302e+00
1.2035037346e+00
1.2035778123e+00
1.2036474562e+00
1.2037126130e+00
1.2037732815e+00
1.2038295055e+00
1.2038813706e+00
1.2039289970e+00
1.2039725363e+00
1.2040121638e+00
1.2040480759e+00
1.2040804828e+00
1.2041096061e+00
1.2041356731e+00
1.2041589139e+00
1.2041795575e+00
1.2041978293e+00
1.2042139483e+00
1.2042281253e+00
1.2042405611e+00
1.2042514451e+00
1.2042609547e+00
1.2042692544e+00
1.2042764955e+00
1.2042828163e+00
1.2042883418e+00
1.2042931841e+00
1.2042974431e+00
1.2043012068e+00
1.2043045517e+00
1.2043075438e+00
1.2043102393e+00
1.2043126852e+00
1.2043149197e+00
1.2043169739e+00
1.2043188714e+00
1.2043206299e+00
1.2043222614e+00
1.2043237733e+00
1.2043251688e+00
1.2043264479e+00
1.2043276078e+00
1.2043286438e+00
1.2043295499e+00
1.2043303194e+00
1.2043309457e+00
1.2043314225e+00
1.2043317446e+00
1.2043319084e+00
1.2043319119e+00
1.2043317556e+00
1.2043314419e+00
1.2043309759e+00
1.2043303651e+00
1.2043296195e+00
1.2043287510e+00
1.2043277736e+00
1.2043267030e+00
1.2043255561e+00
1.2043243505e+00
1.2043231045e+00
1.2043218361e+00
1.2043205631e+00
1.2043193024e+00
1.2043180696e+00
1.2043168790e+00
1.2043157432e+00
1.2043146728e+00
1.2043136761e+00
1.2043127596e+00
1.2043119275e+00
1.2043111818e+00
1.2043105230e+00
1.2043069029e+00
1.2015904621e+00
1.2015977640e+00
1.2016172564e+00
1.2016460839e+00
1.2016839455e+00
1.2017304499e+00
1.2017851193e+00
1.2018474010e+00
1.2019166725e+00
1.2019922566e+00
1.2020734274e+00
1.2021594268e+00
1.2022494714e+00
1.2023427688e+00
1.2024385247e+00
1.2025359583e+00
1.2026343076e+00
1.2027328443e+00
1.2028308765e+00
1.2029277612e+00
1.2030229057e+00
1.2031157765e+00
1.2032058986e+00
1.2032928618e+00
1.2033763177e+00
1.2034559834e+00
1.2035316363e+00
1.2036031159e+00
1.2036703170e+00
1.2037331893e+00
1.2037917302e+00
1.2038459829e+00
1.2038960289e+00
1.2039419850e+00
1.2039839964e+00
1.2040222333e+00
1.2040568841e+00
1.2040881527e+00
1.2041162523e+00
1.2041414028e+00
1.2041638260e+00
1.2041837434e+00
1.2042013724e+00
1.2042169248e+00
1.2042306042e+00
1.2042426045e+00
1.2042531090e+00
1.2042622891e+00
1.2042703038e+00
1.2042772997e+00
1.2042834103e+00
1.2042887567e+00
1.2042934476e+00
1.2042975796e+00
1.2043012379e+00
1.2043044968e+00
1.2043074201e+00
1.2043100623e+00
1.2043124688e+00
1.2043146768e+00
1.2043167159e+00
1.2043186088e+00
1.2043203723e+00
1.2043220177e+00
1.2043235513e+00
1.2043249755e+00
1.2043262895e+00
1.2043274896e+00
1.2043285701e+00
1.2043295241e+00
1.2043303437e+00
1.2043310213e+00
1.2043315496e+00
1.2043319223e+00
1.2043321346e+00
1.2043321838e+00
1.2043320692e+00
1.2043317926e+00
1.2043313584e+00
1.2043307736e+00
1.2043300475e+00
1.2043291921e+00
1.2043282213e+00
1.2043271507e+00
1.2043259975e+00
1.2043247798e+00
1.2043235162e+00
1.2043222253e+00
1.2043209255e+00
1.2043196346e+00
1.2043183688e+00
1.2043171434e+00
1.2043159715e+00
1.2043148647e+00
1.2043138322e+00
1.2043128815e+00
1.2043120176e+00
1.2043112440e+00
1.2043105620e+00
1.2043069175e+00
1.2016956708e+00
1.2017024623e+00
1.2017211601e+00
1.2017488322e+00
1.2017851911e+00
1.2018298595e+00
1.2018823803e+00
1.2019422204e+00
1.2020087840e+00
1.2020814179e+00
1.2021594268e+00
1.2022420797e+00
1.2023286259e+00
1.2024183012e+00
1.2025103444e+00
1.2026040023e+00
1.2026985447e+00
1.2027932688e+00
1.2028875116e+00
1.2029806525e+00
1.2030721236e+00
1.2031614096e+00
1.2032480556e+00
1.2033316651e+00
1.2034119046e+00
1.2034885001e+00
1.2035612391e+00
1.2036299653e+00
1.2036945789e+00
1.2037550299e+00
1.2038113169e+00
1.2038634801e+00
1.2039115987e+00
1.2039557842e+00
1.2039961768e+00
1.2040329394e+00
1.2040662539e+00
1.2040963158e+00
1.2041233306e+00
1.2041475095e+00
1.2041690663e+00
1.2041882138e+00
1.2042051618e+00
1.2042201136e+00
1.2042332656e+00
1.2042448045e+00
1.2042549068e+00
1.2042637376e+00
1.2042714504e+00
1.2042781862e+00
1.2042840741e+00
1.2042892308e+00
1.2042937611e+00
1.2042977583e+00
1.2043013047e+00
1.2043044720e+00
1.2043073220e+00
1.2043099071e+00
1.2043122711e+00
1.2043144498e+00
1.2043164716e+00
1.2043183581e+00
1.2043201251e+00
1.2043217829e+00
1.2043233370e+00
1.2043247889e+00
1.2043261367e+00
1.2043273759e+00
1.2043284998e+00
1.2043295005e+00
1.2043303690e+00
1.2043310966e+00