# vtk DataFile Version 2.0
Blank
ASCII
DATASET STRUCTURED_GRID
DIMENSIONS 101 101 2
POINTS 20402 float
0.0000000000e+00 0.0000000000e+00 0.0000000000e+00
1.0000000000e-02 0.0000000000e+00 0.0000000000e+00
2.0000000000e-02 0.0000000000e+00 0.0000000000e+00
3.0000000000e-02 0.0000000000e+00 0.0000000000e+00
4.0000000000e-02 0.0000000000e+00 0.0000000000e+00
5.0000000000e-02 0.0000000000e+00 0.0000000000e+00
6.0000000000e-02 0.0000000000e+00 0.0000000000e+00
7.0000000000e-02 0.0000000000e+00 0.0000000000e+00
8.0000000000e-02 0.0000000000e+00 0.0000000000e+00
9.0000000000e-02 0.0000000000e+00 0.0000000000e+00
1.0000000000e-01 0.0000000000e+00 0.0000000000e+00
1.1000000000e-01 0.0000000000e+00 0.0000000000e+00
1.2000000000e-01 0.0000000000e+00 0.0000000000e+00
1.3000000000e-01 0.0000000000e+00 0.0000000000e+00
1.4000000000e-01 0.0000000000e+00 0.0000000000e+00
1.5000000000e-01 0.0000000000e+00 0.0000000000e+00
1.6000000000e-01 0.0000000000e+00 0.0000000000e+00
1.7000000000e-01 0.0000000000e+00 0.0000000000e+00
1.8000000000e-01 0.0000000000e+00 0.0000000000e+00
1.9000000000e-01 0.0000000000e+00 0.0000000000e+00
2.0000000000e-01 0.0000000000e+00 0.0000000000e+00
2.1000000000e-01 0.0000000000e+00 0.0000000000e+00
2.2000000000e-01 0.0000000000e+00 0.0000000000e+00
2.3000000000e-01 0.0000000000e+00 0.0000000000e+00
2.4000000000e-01 0.0000000000e+00 0.0000000000e+00
2.5000000000e-01 0.0000000000e+00 0.0000000000e+00
2.6000000000e-01 0.0000000000e+00 0.0000000000e+00
2.7000000000e-01 0.0000000000e+00 0.0000000000e+00
2.8000000000e-01 0.0000000000e+00 0.0000000000e+00
2.9000000000e-01 0.0000000000e+00 0.0000000000e+00
3.0000000000e-01 0.0000000000e+00 0.0000000000e+00
3.1000000000e-01 0.0000000000e+00 0.0000000000e+00
3.2000000000e-01 0.0000000000e+00 0.0000000000e+00
3.3000000000e-01 0.0000000000e+00 0.0000000000e+00
3.4000000000e-01 0.0000000000e+00 0.0000000000e+00
3.5000000000e-01 0.0000000000e+00 0.0000000000e+00
3.6000000000e-01 0.0000000000e+00 0.0000000000e+00
3.7000000000e-01 0.0000000000e+00 0.0000000000e+00
3.8000000000e-01 0.0000000000e+00 0.0000000000e+00
3.9000000000e-01 0.0000000000e+00 0.0000000000e+00
4.0000000000e-01 0.0000000000e+00 0.0000000000e+00
4.1000000000e-01 0.0000000000e+00 0.0000000000e+00
4.2000000000e-01 0.0000000000e+00 0.0000000000e+00
4.3000000000e-01 0.0000000000e+00 0.0000000000e+00
4.4000000000e-01 0.0000000000e+00 0.0000000000e+00
4.5000000000e-01 0.0000000000e+00 0.0000000000e+00
4.6000000000e-01 0.0000000000e+00 0.0000000000e+00
4.7000000000e-01 0.0000000000e+00 0.0000000000e+00
4.8000000000e-01 0.0000000000e+00 0.0000000000e+00
4.9000000000e-01 0.0000000000e+00 0.0000000000e+00
5.0000000000e-01 0.0000000000e+00 0.0000000000e+00
5.1000000000e-01 0.0000000000e+00 0.0000000000e+00
5.2000000000e-01 0.0000000000e+00 0.0000000000e+00
5.3000000000e-01 0.0000000000e+00 0.0000000000e+00
5.4000000000e-01 0.0000000000e+00 0.0000000000e+00
5.5000000000e-01 0.0000000000e+00 0.0000000000e+00
5.6000000000e-01 0.0000000000e+00 0.0000000000e+00
5.7000000000e-01 0.0000000000e+00 0.0000000000e+00
5.8000000000e-01 0.0000000000e+00 0.0000000000e+00
5.9000000000e-01 0.0000000000e+00 0.0000000000e+00
6.0000000000e-01 0.0000000000e+00 0.0000000000e+00
6.1000000000e-01 0.0000000000e+00 0.0000000000e+00
6.2000000000e-01 0.0000000000e+00 0.0000000000e+00
6.3000000000e-01 0.0000000000e+00 0.0000000000e+00
6.4000000000e-01 0.0000000000e+00 0.0000000000e+00
6.5000000000e-01 0.0000000000e+00 0.0000000000e+00
6.6000000000e-01 0.0000000000e+00 0.0000000000e+00
6.7000000000e-01 0.0000000000e+00 0.0000000000e+00
6.8000000000e-01 0.0000000000e+00 0.0000000000e+00
6.9000000000e-01 0.0000000000e+00 0.0000000000e+00
7.0000000000e-01 0.0000000000e+00 0.0000000000e+00
7.1000000000e-01 0.0000000000e+00 0.0000000000e+00
7.2000000000e-01 0.0000000000e+00 0.0000000000e+00
7.3000000000e-01 0.0000000000e+00 0.0000000000e+00
7.4000000000e-01 0.0000000000e+00 0.0000000000e+00
7.5000000000e-01 0.0000000000e+00 0.0000000000e+00
7.6000000000e-01 0.0000000000e+00 0.0000000000e+00
7.7000000000e-01 0.0000000000e+00 0.0000000000e+00
7.8000000000e-01 0.0000000000e+00 0.0000000000e+00
7.9000000000e-01 0.0000000000e+00 0.0000000000e+00
8.0000000000e-01 0.0000000000e+00 0.0000000000e+00
8.1000000000e-01 0.0000000000e+00 0.0000000000e+00
8.2000000000e-01 0.0000000000e+00 0.0000000000e+00
8.3000000000e-01 0.0000000000e+00 0.0000000000e+00
8.4000000000e-01 0.0000000000e+00 0.0000000000e+00
8.5000000000e-01 0.0000000000e+00 0.0000000000e+00
8.6000000000e-01 0.0000000000e+00 0.0000000000e+00
8.7000000000e-01 0.0000000000e+00 0.0000000000e+00
8.8000000000e-01 0.0000000000e+00 0.0000000000e+00
8.9000000000e-01 0.0000000000e+00 0.0000000000e+00
9.0000000000e-01 0.0000000000e+00 0.0000000000e+00
9.1000000000e-01 0.0000000000e+00 0.0000000000e+00
9.2000000000e-01 0.0000000000e+00 0.0000000000e+00
9.3000000000e-01 0.0000000000e+00 0.0000000000e+00
9.4000000000e-01 0.0000000000e+00 0.0000000000e+00
9.5000000000e-01 0.0000000000e+00 0.0000000000e+00
9.6000000000e-01 0.0000000000e+00 0.0000000000e+00
9.7000000000e-01 0.0000000000e+00 0.0000000000e+00
9.8000000000e-01 0.0000000000e+00 0.0000000000e+00
9.9000000000e-01 0.0000000000e+00 0.0000000000e+00
1.0000000000e+00 0.0000000000e+00 0.0000000000e+00
0.0000000000e+00 1.0000000000e-02 0.0000000000e+00
1.0000000000e-02 1.0000000000e-02 0.0000000000e+00
2.0000000000e-02 1.0000000000e-02 0.0000000000e+00
3.0000000000e-02 1.0000000000e-02 0.0000000000e+00
4.0000000000e-02 1.0000000000e-02 0.0000000000e+00
5.0000000000e-02 1.0000000000e-02 0.0000000000e+00
6.0000000000e-02 1.0000000000e-02 0.0000000000e+00
7.0000000000e-02 1.0000000000e-02 0.0000000000e+00
8.0000000000e-02 1.0000000000e-02 0.0000000000e+00
9.0000000000e-02 1.0000000000e-02 0.0000000000e+00
1.0000000000e-01 1.0000000000e-02 0.0000000000e+00
1.1000000000e-01 1.0000000000e-02 0.0000000000e+00
1.2000000000e-01 1.0000000000e-02 0.0000000000e+00
1.3000000000e-01 1.0000000000e-02 0.0000000000e+00
1.4000000000e-01 1.0000000000e-02 0.0000000000e+00
1.5000000000e-01 1.0000000000e-02 0.0000000000e+00
1.6000000000e-01 1.0000000000e-02 0.0000000000e+00
1.7000000000e-01 1.0000000000e-02 0.0000000000e+00
1.8000000000e-01 1.0000000000e-02 0.0000000000e+00
1.9000000000e-01 1.0000000000e-02 0.0000000000e+00
2.0000000000e-01 1.0000000000e-02 0.0000000000e+00
2.1000000000e-01 1.0000000000e-02 0.0000000000e+00
2.2000000000e-01 1.0000000000e-02 0.0000000000e+00
2.3000000000e-01 1.0000000000e-02 0.0000000000e+00
2.4000000000e-01 1.0000000000e-02 0.0000000000e+00
2.5000000000e-01 1.0000000000e-02 0.0000000000e+00
2.6000000000e-01 1.0000000000e-02 0.0000000000e+00
2.7000000000e-01 1.0000000000e-02 0.0000000000e+00
2.8000000000e-01 1.0000000000e-02 0.0000000000e+00
2.9000000000e-01 1.0000000000e-02 0.0000000000e+00
3.0000000000e-01 1.0000000000e-02 0.0000000000e+00
3.1000000000e-01 1.0000000000e-02 0.0000000000e+00
3.2000000000e-01 1.0000000000e-02 0.0000000000e+00
3.3000000000e-01 1.0000000000e-02 0.0000000000e+00
3.4000000000e-01 1.0000000000e-02 0.0000000000e+00
3.5000000000e-01 1.0000000000e-02 0.0000000000e+00
3.6000000000e-01 1.0000000000e-02 0.0000000000e+00
3.7000000000e-01 1.0000000000e-02 0.0000000000e+00
3.8000000000e-01 1.0000000000e-02 0.0000000000e+00
3.9000000000e-01 1.0000000000e-02 0.0000000000e+00
4.0000000000e-01 1.0000000000e-02 0.0000000000e+00
4.1000000000e-01 1.0000000000e-02 0.0000000000e+00
4.2000000000e-01 1.0000000000e-02 0.0000000000e+00
4.3000000000e-01 1.0000000000e-02 0.0000000000e+00
4.4000000000e-01 1.0000000000e-02 0.0000000000e+00
4.5000000000e-01 1.0000000000e-02 0.0000000000e+00
4.6000000000e-01 1.0000000000e-02 0.0000000000e+00
4.7000000000e-01 1.0000000000e-02 0.0000000000e+00
4.8000000000e-01 1.0000000000e-02 0.0000000000e+00
4.9000000000e-01 1.0000000000e-02 0.0000000000e+00
5.0000000000e-01 1.0000000000e-02 0.0000000000e+00
5.1000000000e-01 1.0000000000e-02 0.0000000000e+00
5.2000000000e-01 1.0000000000e-02 0.0000000000e+00
5.3000000000e-01 1.0000000000e-02 0.0000000000e+00
5.4000000000e-01 1.0000000000e-02 0.0000000000e+00
5.5000000000e-01 1.0000000000e-02 0.0000000000e+00
5.6000000000e-01 1.0000000000e-02 0.0000000000e+00
5.7000000000e-01 1.0000000000e-02 0.0000000000e+00
5.8000000000e-01 1.0000000000e-02 0.0000000000e+00
5.9000000000e-01 1.0000000000e-02 0.0000000000e+00
6.0000000000e-01 1.0000000000e-02 0.0000000000e+00
6.1000000000e-01 1.0000000000e-02 0.0000000000e+00
6.2000000000e-01 1.0000000000e-02 0.0000000000e+00
6.3000000000e-01 1.0000000000e-02 0.0000000000e+00
6.4000000000e-01 1.0000000000e-02 0.0000000000e+00
6.5000000000e-01 1.0000000000e-02 0.0000000000e+00
6.6000000000e-01 1.0000000000e-02 0.0000000000e+00
6.7000000000e-01 1.0000000000e-02 0.0000000000e+00
6.8000000000e-01 1.0000000000e-02 0.0000000000e+00
6.9000000000e-01 1.0000000000e-02 0.0000000000e+00
7.0000000000e-01 1.0000000000e-02 0.0000000000e+00
7.1000000000e-01 1.0000000000e-02 0.0000000000e+00
7.2000000000e-01 1.0000000000e-02 0.0000000000e+00
7.3000000000e-01 1.0000000000e-02 0.0000000000e+00
7.4000000000e-01 1.0000000000e-02 0.0000000000e+00
7.5000000000e-01 1.0000000000e-02 0.0000000000e+00
7.6000000000e-01 1.0000000000e-02 0.0000000000e+00
7.7000000000e-01 1.0000000000e-02 0.0000000000e+00
7.8000000000e-01 1.0000000000e-02 0.0000000000e+00
7.9000000000e-01 1.0000000000e-02 0.0000000000e+00
8.0000000000e-01 1.0000000000e-02 0.0000000000e+00
8.1000000000e-01 1.0000000000e-02 0.0000000000e+00
8.2000000000e-01 1.0000000000e-02 0.0000000000e+00
8.3000000000e-01 1.0000000000e-02 0.0000000000e+00
8.4000000000e-01 1.0000000000e-02 0.0000000000e+00
8.5000000000e-01 1.0000000000e-02 0.0000000000e+00
8.6000000000e-01 1.0000000000e-02 0.0000000000e+00
8.7000000000e-01 1.0000000000e-02 0.0000000000e+00
8.8000000000e-01 1.0000000000e-02 0.0000000000e+00
8.9000000000e-01 1.0000000000e-02 0.0000000000e+00
9.0000000000e-01 1.0000000000e-02 0.0000000000e+00
9.1000000000e-01 1.0000000000e-02 0.0000000000e+00
9.2000000000e-01 1.0000000000e-02 0.0000000000e+00
[...]
CELL_DATA 10000

SCALARS massDensity float
LOOKUP_TABLE default
1.1991168425e+00
1.1991529419e+00
1.1992100365e+00
1.1992950037e+00
1.1994064202e+00
1.1995424889e+00
1.1997010818e+00
1.1998797938e+00
1.2000759900e+00
1.2002868702e+00
1.2005095234e+00
1.2007409959e+00
1.2009783461e+00
1.2012187081e+00
1.2014593388e+00
1.2016976706e+00
1.2019313457e+00
1.2021582534e+00
1.2023765492e+00
1.2025846748e+00
1.2027813615e+00
1.2029656341e+00
1.2031367995e+00
1.2032944381e+00
1.2034383799e+00
1.2035686867e+00
1.2036856211e+00
1.2037896227e+00
1.2038812743e+00
1.2039612766e+00
1.2040304152e+00
1.2040895366e+00
1.2041395200e+00
1.2041812575e+00
1.2042156311e+00
1.2042434989e+00
1.2042656791e+00
1.2042829416e+00
1.2042959987e+00
1.2043055020e+00
1.2043120382e+00
1.2043161310e+00
1.2043182400e+00
1.2043187658e+00
1.2043180518e+00
1.2043163903e+00
1.2043140258e+00
1.2043111615e+00
1.2043079630e+00
1.2043045643e+00
1.2043010715e+00
1.2042975677e+00
1.2042941160e+00
1.2042907637e+00
1.2042875445e+00
1.2042844820e+00
1.2042815906e+00
1.2042788788e+00
1.2042763492e+00
1.2042740009e+00
1.2042718301e+00
1.2042698307e+00
1.2042679952e+00
1.2042663153e+00
1.2042647819e+00
1.2042633859e+00
1.2042621180e+00
1.2042609689e+00
1.2042599298e+00
1.2042589921e+00
1.2042581475e+00
1.2042573881e+00
1.2042567064e+00
1.2042560955e+00
1.2042555485e+00
1.2042550593e+00
1.2042546218e+00
1.2042542306e+00
1.2042538805e+00
1.2042535668e+00
1.2042532855e+00
1.2042530331e+00
1.2042528069e+00
1.2042526053e+00
1.2042524280e+00
1.2042522759e+00
1.2042521524e+00
1.2042520627e+00
1.2042520153e+00
1.2042520220e+00
1.2042520995e+00
1.2042522698e+00
1.2042525635e+00
1.2042530211e+00
1.2042536987e+00
1.2042546726e+00
1.2042560469e+00
1.2042579583e+00
1.2042605679e+00
1.2042501380e+00
1.1991529419e+00
1.1991900816e+00
1.1992474734e+00
1.1993321900e+00
1.1994429208e+00
1.1995779386e+00
1.1997351663e+00
1.1999122273e+00
1.2001065133e+00
1.2003152382e+00
1.2005355112e+00
1.2007643914e+00
1.2009989597e+00
1.2012363677e+00
1.2014739011e+00
1.2017090176e+00
1.2019393964e+00
1.2021629604e+00
1.2023779092e+00
1.2025827246e+00
1.2027761862e+00
1.2029573615e+00
1.2031256054e+00
1.2032805377e+00
1.2034220302e+00
1.2035501760e+00
1.2036652682e+00
1.2037677645e+00
1.2038582634e+00
1.2039374683e+00
1.2040061644e+00
1.2040651862e+00
1.2041153976e+00
1.2041576661e+00
1.2041928476e+00
1.2042217672e+00
1.2042452108e+00
1.2042639117e+00
1.2042785484e+00
1.2042897371e+00
1.2042980333e+00
1.2043039292e+00
1.2043078587e+00
1.2043101974e+00
1.2043112692e+00
1.2043113484e+00
1.2043106665e+00
1.2043094153e+00
1.2043077532e+00
1.2043058082e+00
1.2043036838e+00
1.2043014609e+00
1.2042992036e+00
1.2042969598e+00
1.2042947664e+00
1.2042926492e+00
1.2042906270e+00
1.2042887114e+00
1.2042869098e+00
1.2042852253e+00
1.2042836585e+00
1.2042822073e+00
1.2042808685e+00
1.2042796376e+00
1.2042785096e+00
1.2042774785e+00
1.2042765387e+00
1.2042756840e+00
1.2042749086e+00
1.2042742067e+00
1.2042735725e+00
1.2042730006e+00
1.2042724859e+00
1.2042720233e+00
1.2042716082e+00
1.2042712361e+00
1.2042709029e+00
1.2042706046e+00
1.2042703378e+00
1.2042700993e+00
1.2042698862e+00
1.2042696963e+00
1.2042695278e+00
1.2042693799e+00
1.2042692522e+00
1.2042691459e+00
1.2042690629e+00
1.2042690070e+00
1.2042689836e+00
1.2042690003e+00
1.2042690672e+00
1.2042691975e+00
1.2042694080e+00
1.2042697202e+00
1.2042701601e+00
1.2042707590e+00
1.2042715494e+00
1.2042725576e+00
1.2042737783e+00
1.2042606957e+00
1.1992100365e+00
1.1992474734e+00
1.1993048306e+00
1.1993891216e+00
1.1994990801e+00
1.1996330267e+00
1.1997889184e+00
1.1999644172e+00
1.2001569407e+00
1.2003637364e+00
1.2005819353e+00
1.2008086272e+00
1.2010409115e+00
1.2012759677e+00
1.2015110978e+00
1.2017437847e+00
1.2019717212e+00
1.2021928532e+00
1.2024053922e+00
1.2026078409e+00
1.2027989897e+00
1.2029779247e+00
1.2031440105e+00
1.2032968834e+00
1.2034364233e+00
1.2035627367e+00
1.2036761222e+00
1.2037770475e+00
1.2038661129e+00
1.2039440272e+00
1.2040115733e+00
1.2040695863e+00
1.2041189238e+00
1.2041604495e+00
1.2041950093e+00
1.2042234211e+00
1.2042464586e+00
1.2042648461e+00
1.2042792487e+00
1.2042902729e+00
1.2042984616e+00
1.2043042982e+00
1.2043082051e+00
1.2043105506e+00
1.2043116496e+00
1.2043117709e+00
1.2043111392e+00
1.2043099429e+00
1.2043083355e+00
1.2043064434e+00
1.2043043669e+00
1.2043021866e+00
1.2042999647e+00
1.2042977497e+00
1.2042955775e+00
1.2042934748e+00
1.2042914602e+00
1.2042895463e+00
1.2042877407e+00
1.2042860475e+00
1.2042844675e+00
1.2042829997e+00
1.2042816413e+00
1.2042803884e+00
1.2042792364e+00
1.2042781802e+00
1.2042772142e+00
1.2042763330e+00
1.2042755308e+00
1.2042748022e+00
1.2042741418e+00
1.2042735444e+00
1.2042730049e+00
1.2042725186e+00
1.2042720809e+00
1.2042716875e+00
1.2042713345e+00
1.2042710180e+00
1.2042707346e+00
1.2042704814e+00
1.2042702556e+00
1.2042700551e+00
1.2042698783e+00
1.2042697242e+00
1.2042695927e+00
1.2042694843e+00
1.2042694010e+00
1.2042693455e+00
1.2042693224e+00
1.2042693375e+00
1.2042693984e+00
1.2042695144e+00
1.2042696970e+00
1.2042699584e+00
1.2042703120e+00
1.2042707680e+00
1.2042713294e+00
1.2042719786e+00
1.2042726544e+00
1.2042582249e+00
1.1992950037e+00
1.1993321900e+00
1.1993891216e+00
1.1994725167e+00
1.1995811371e+00
1.1997133337e+00
1.1998671082e+00
1.2000401586e+00
1.2002299505e+00
1.2004337678e+00
1.2006487890e+00
1.2008721383e+00
1.2011009609e+00
1.2013324676e+00
1.2015640019e+00
1.2017930738e+00
1.2020174130e+00
1.2022349878e+00
1.2024440412e+00
1.2026430940e+00
1.2028309626e+00
1.2030067472e+00
1.2031698333e+00
1.2033198669e+00
1.2034567436e+00
1.2035805755e+00
1.2036916713e+00
1.2037904995e+00
1.2038776650e+00
1.2039538728e+00
1.2040199047e+00
1.2040765871e+00
1.2041247720e+00
1.2041653102e+00
1.2041990383e+00
1.2042267590e+00
1.2042492340e+00
1.2042671713e+00
1.2042812236e+00
1.2042919814e+00
1.2042999759e+00
1.2043056760e+00
1.2043094943e+00
1.2043117871e+00
1.2043128616e+00
1.2043129773e+00
1.2043123537e+00
1.2043111724e+00
1.2043095840e+00
1.2043077101e+00
1.2043056499e+00
1.2043034810e+00
1.2043012656e+00
1.2042990507e+00
1.2042968725e+00
1.2042947574e+00
1.2042927246e+00
1.2042907870e+00
1.2042889530e+00
1.2042872269e+00
1.2042856106e+00
1.2042841034e+00
1.2042827035e+00
1.2042814074e+00
1.2042802112e+00
1.2042791101e+00
1.2042780992e+00
1.2042771734e+00
1.2042763274e+00
1.2042755560e+00
1.2042748541e+00
1.2042742167e+00
1.2042736390e+00
1.2042731163e+00
1.2042726443e+00
1.2042722188e+00
1.2042718358e+00
1.2042714917e+00
1.2042711831e+00
1.2042709071e+00
1.2042706609e+00
1.2042704426e+00
1.2042702502e+00
1.2042700829e+00
1.2042699400e+00
1.2042698220e+00
1.2042697300e+00
1.2042696661e+00
1.2042696332e+00
1.2042696355e+00
1.2042696779e+00
1.2042697663e+00
1.2042699066e+00
1.2042701044e+00
1.2042703629e+00
1.2042706801e+00
1.2042710428e+00
1.2042714183e+00
1.2042717384e+00
1.2042564492e+00
1.1994064202e+00
1.1994429208e+00
1.1994990801e+00
1.1995811371e+00
1.1996878683e+00
1.1998176643e+00
1.1999685649e+00
1.2001383234e+00
1.2003244520e+00
1.2005242958e+00
1.2007350820e+00
1.2009539970e+00
1.2011782321e+00
1.2014050572e+00
1.2016318572e+00
1.2018561949e+00
1.2020758350e+00
1.2022887909e+00
1.2024933332e+00
1.2026880195e+00
1.2028716867e+00
1.2030434633e+00
1.2032027483e+00
1.2033492082e+00
1.2034827457e+00
1.2036034853e+00
1.2037117367e+00
1.2038079736e+00
1.2038927958e+00
1.2039669068e+00
1.2040310780e+00
1.2040861285e+00
1.2041328954e+00
1.2041722178e+00
1.2042049143e+00
1.2042317731e+00
1.2042535366e+00
1.2042708972e+00
1.2042844884e+00
1.2042948860e+00
1.2043026033e+00
1.2043080965e+00
1.2043117631e+00
1.2043139490e+00
1.2043149493e+00
1.2043150161e+00
1.2043143600e+00
1.2043131575e+00
1.2043115530e+00
1.2043096656e+00
1.2043075903e+00
1.2043054038e+00
1.2043031657e+00
1.2043009233e+00
1.2042987115e+00
1.2042965575e+00
1.2042944801e+00
1.2042924931e+00
1.2042906049e+00
1.2042888212e+00
1.2042871439e+00
1.2042855735e+00
1.2042841085e+00
1.2042827464e+00
1.2042814835e+00
1.2042803160e+00
1.2042792394e+00
1.2042782489e+00
1.2042773397e+00
1.2042765071e+00
1.2042757461e+00
1.2042750521e+00
1.2042744203e+00
1.2042738465e+00
1.2042733262e+00
1.2042728554e+00
1.2042724302e+00
1.2042720471e+00
1.2042717026e+00
1.2042713937e+00
1.2042711178e+00
1.2042708725e+00
1.2042706561e+00
1.2042704671e+00
1.2042703047e+00
1.2042701687e+00
1.2042700596e+00
1.2042699783e+00
1.2042699267e+00
1.2042699068e+00
1.2042699215e+00
1.2042699731e+00
1.2042700638e+00
1.2042701939e+00
1.2042703605e+00
1.2042705547e+00
1.2042707577e+00
1.2042709348e+00
1.2042710285e+00
1.2042551901e+00
1.1995424889e+00
1.1995779386e+00
1.1996330267e+00
1.1997133337e+00
1.1998176643e+00
1.1999444422e+00
1.2000917632e+00
1.2002574317e+00
1.2004390301e+00
1.2006339628e+00
1.2008395328e+00
1.2010529866e+00
1.2012715909e+00
1.2014926716e+00
1.2017136832e+00
1.2019322375e+00
1.2021461594e+00
1.2023535019e+00
1.2025525854e+00
1.2027419971e+00
1.2029206122e+00
1.2030875791e+00
1.2032423241e+00
1.2033845245e+00
1.2035140999e+00
1.2036311773e+00
1.2037360740e+00
1.2038292586e+00
1.2039113302e+00
1.2039829806e+00
1.2040449735e+00
1.2040981114e+00
1.2041432179e+00
1.2041811118e+00
1.2042125949e+00
1.2042384331e+00
1.2042593503e+00
1.2042760166e+00
1.2042890475e+00
1.2042989976e+00
1.2043063643e+00
1.2043115852e+00
1.2043150445e+00
1.2043170730e+00
1.2043179559e+00
1.2043179334e+00
1.2043172091e+00
1.2043159512e+00
1.2043143000e+00
1.2043123686e+00
1.2043102501e+00
1.2043080176e+00
1.2043057302e+00
1.2043034330e+00
1.2043011616e+00
1.2042989420e+00
1.2042967942e+00
1.2042947314e+00
1.2042927636e+00
1.2042908962e+00
1.2042891327e+00
1.2042874736e+00
1.2042859188e+00
1.2042844659e+00
1.2042831124e+00
1.2042818549e+00
1.2042806895e+00
1.2042796119e+00
1.2042786180e+00
1.2042777031e+00
1.2042768630e+00
1.2042760930e+00
1.2042753890e+00
1.2042747464e+00
1.2042741613e+00
1.2042736296e+00
1.2042731475e+00
1.2042727114e+00
1.2042723180e+00
1.2042719640e+00
1.2042716468e+00
1.2042713637e+00
1.2042711128e+00
1.2042708922e+00
1.2042707007e+00
1.2042705376e+00
1.2042704023e+00
1.2042702950e+00
1.2042702160e+00
1.2042701660e+00
1.2042701455e+00
1.2042701546e+00
1.2042701924e+00
1.2042702559e+00
1.2042703387e+00
1.2042704292e+00
1.2042705078e+00
1.2042705442e+00
1.2042704943e+00
1.2042543016e+00
1.1997010818e+00
1.1997351663e+00
1.1997889184e+00
1.1998671082e+00
1.1999685649e+00
1.2000917632e+00
1.2002348492e+00
1.2003957012e+00
1.2005719668e+00
1.2007611362e+00
1.2009605836e+00
1.2011676448e+00
1.2013796565e+00
1.2015940301e+00
1.2018082833e+00
1.2020201044e+00
1.2022273716e+00
1.2024282020e+00
1.2026209570e+00
1.2028042743e+00
1.2029770577e+00
1.2031384922e+00
1.2032880209e+00
1.2034253444e+00
1.2035503884e+00
1.2036632916e+00
1.2037643676e+00
1.2038540866e+00
1.2039330361e+00
1.2040019008e+00
1.2040614264e+00
1.2041124014e+00
1.2041556272e+00
1.2041919041e+00
1.2042220089e+00
1.2042466867e+00
1.2042666358e+00
1.2042825053e+00
1.2042948863e+00
1.2043043141e+00
1.2043112640e+00
1.2043161573e+00
1.2043193597e+00
1.2043211889e+00
1.2043219154e+00
1.2043217701e+00
1.2043209458e+00
1.2043196043e+00
1.2043178782e+00
1.2043158774e+00
1.2043136896e+00
1.2043113867e+00
1.2043090246e+00
1.2043066485e+00
1.2043042921e+00
1.2043019824e+00
1.2042997384e+00
1.2042975749e+00
1.2042955014e+00
1.2042935248e+00
1.2042916488e+00
1.2042898753e+00
1.2042882043e+00
1.2042866350e+00
1.2042851651e+00
1.2042837922e+00
1.2042825128e+00
1.2042813237e+00
1.2042802209e+00
1.2042792005e+00
1.2042782584e+00
1.2042773906e+00
1.2042765929e+00
1.2042758614e+00
1.2042751920e+00
1.2042745809e+00
1.2042740244e+00
1.2042735187e+00
1.2042730606e+00
1.2042726467e+00
1.2042722742e+00
1.2042719401e+00
1.2042716423e+00
1.2042713784e+00
1.2042711468e+00
1.2042709459e+00
1.2042707746e+00
1.2042706319e+00
1.2042705171e+00
1.2042704293e+00
1.2042703676e+00
1.2042703299e+00
1.2042703136e+00
1.2042703134e+00
1.2042703215e+00
1.2042703257e+00
1.2042703084e+00
1.2042702446e+00
1.2042701028e+00
1.2042536773e+00
1.1998797938e+00
1.1999122273e+00
1.1999644172e+00
1.2000401586e+00
1.2001383234e+00
1.2002574317e+00
1.2003957012e+00
1.2005510771e+00
1.2007212979e+00
1.2009039323e+00
1.2010964546e+00
1.2012962819e+00
1.2015008506e+00
1.2017076491e+00
1.2019142876e+00
1.2021185214e+00
1.2023183083e+00
1.2025118195e+00
1.2026974808e+00
1.2028739689e+00
1.2030402359e+00
1.2031954914e+00
1.2033392108e+00
1.2034711062e+00
1.2035911209e+00
1.2036993934e+00
1.2037962425e+00
1.2038821282e+00
1.2039576328e+00
1.2040234229e+00
1.2040802310e+00
1.2041288218e+00
1.2041699774e+00
1.2042044710e+00
1.2042330569e+00
1.2042564516e+00
1.2042753301e+00
1.2042903135e+00
1.2043019707e+00
1.2043108113e+00
1.2043172913e+00
1.2043218096e+00
1.2043247159e+00
1.2043263102e+00
1.2043268506e+00
1.2043265545e+00
1.2043256058e+00
1.2043241567e+00
1.2043223345e+00
1.2043202421e+00
1.2043179647e+00
1.2043155697e+00
1.2043131123e+00
1.2043106350e+00
1.2043081721e+00
1.2043057490e+00
1.2043033860e+00
1.2043010973e+00
1.2042988939e+00
1.2042967827e+00
1.2042947688e+00
1.2042928545e+00
1.2042910413e+00
1.2042893286e+00
1.2042877157e+00
1.2042862004e+00
1.2042847806e+00
1.2042834532e+00
1.2042822153e+00
1.2042810634e+00
1.2042799942e+00
1.2042790037e+00
1.2042780885e+00
1.2042772448e+00
1.2042764688e+00
1.2042757568e+00
1.2042751052e+00
1.2042745104e+00
1.2042739689e+00
1.2042734774e+00
1.2042730328e+00
1.2042726320e+00
1.2042722723e+00
1.2042719512e+00
1.2042716663e+00
1.2042714155e+00
1.2042711968e+00
1.2042710085e+00
1.2042708487e+00
1.2042707154e+00
1.2042706062e+00
1.2042705179e+00
1.2042704463e+00
1.2042703854e+00
1.2042703265e+00
1.2042702584e+00
1.2042701656e+00
1.2042700290e+00
1.2042698256e+00
1.2042532446e+00
1.2000759900e+00
1.2001065133e+00
1.2001569407e+00
1.2002299505e+00
1.2003244520e+00
1.2004390301e+00
1.2005719668e+00
1.2007212979e+00
1.2008848436e+00
1.2010602790e+00
1.2012451678e+00
1.2014370384e+00
1.2016334158e+00
1.2018318952e+00
1.2020301673e+00
1.2022260827e+00
1.2024176667e+00
1.2026031696e+00
1.2027810687e+00
1.2029501018e+00
1.2031092558e+00
1.2032577831e+00
1.2033951780e+00
1.2035211783e+00
1.2036357323e+00
1.2037389889e+00
1.2038312599e+00
1.2039130034e+00
1.2039847850e+00
1.2040472594e+00
1.2041011352e+00
1.2041471581e+00
1.2041860818e+00
1.2042186558e+00
1.2042456037e+00
1.2042676164e+00
1.2042853382e+00
1.2042993653e+00
1.2043102376e+00
1.2043184420e+00
1.2043244088e+00
1.2043285178e+00
1.2043310975e+00
1.2043324324e+00
1.2043327640e+00
1.2043322984e+00
1.2043312072e+00
1.2043296351e+00
1.2043277004e+00
1.2043255019e+00
1.2043231188e+00
1.2043206167e+00
1.2043180469e+00
1.2043154519e+00
1.2043128636e+00
1.2043103085e+00
1.2043078058e+00
1.2043053711e+00
1.2043030150e+00
1.2043007462e+00
1.2042985698e+00
1.2042964898e+00
1.2042945081e+00
1.2042926258e+00
1.2042908424e+00
1.2042891575e+00
1.2042875692e+00
1.2042860759e+00
1.2042846749e+00
1.2042833638e+00
1.2042821397e+00
1.2042809996e+00
1.2042799401e+00
1.2042789582e+00
1.2042780501e+00
1.2042772127e+00
1.2042764423e+00
1.2042757355e+00
1.2042750888e+00
1.2042744989e+00
1.2042739624e+00
1.2042734762e+00
1.2042730370e+00
1.2042726420e+00
1.2042722884e+00
1.2042719733e+00
1.2042716942e+00
1.2042714483e+00
1.2042712330e+00
1.2042710452e+00
1.2042708816e+00
1.2042707379e+00
1.2042706092e+00
1.2042704887e+00
1.2042703682e+00
1.2042702372e+00
1.2042700829e+00
1.2042698902e+00
1.2042696428e+00
1.2042529560e+00
1.2002868702e+00
1.2003152382e+00
1.2003637364e+00
1.2004337678e+00
1.2005242958e+00
1.2006339628e+00
1.2007611362e+00
1.2009039323e+00
1.2010602790e+00
1.2012279453e+00
1.2014046133e+00
1.2015879091e+00
1.2017754763e+00
1.2019650026e+00
1.2021542883e+00
1.2023412648e+00
1.2025240513e+00
1.2027009629e+00
1.2028705518e+00
1.2030316022e+00
1.2031831559e+00
1.2033244936e+00
1.2034551449e+00
1.2035748595e+00
1.2036836033e+00
1.2037815230e+00
1.2038689333e+00
1.2039462783e+00
1.2040141146e+00
1.2040730743e+00
1.2041238480e+00
1.2041671527e+00
1.2042037183e+00
1.2042342622e+00
1.2042594810e+00
1.2042800329e+00
1.2042965347e+00
1.2043095507e+00
1.2043195954e+00
1.2043271268e+00
1.2043325527e+00
1.2043362283e+00
1.2043384637e+00
1.2043395234e+00
1.2043396350e+00
1.2043389890e+00
1.2043377473e+00
1.2043360433e+00
1.2043339892e+00
1.2043316760e+00
1.2043291795e+00
1.2043265604e+00
1.2043238687e+00
1.2043211438e+00
1.2043184182e+00
1.2043157163e+00
1.2043130587e+00
1.2043104602e+00
1.2043079332e+00
1.2043054861e+00
1.2043031259e+00
1.2043008570e+00
1.2042986829e+00
1.2042966053e+00
1.2042946256e+00
1.2042927435e+00
1.2042909591e+00
1.2042892710e+00
1.2042876783e+00
1.2042861788e+00
1.2042847708e+00
1.2042834516e+00
1.2042822191e+00
1.2042810702e+00
1.2042800021e+00
1.2042790116e+00
1.2042780957e+00
1.2042772509e+00
1.2042764741e+00
1.2042757617e+00
1.2042751104e+00
1.2042745167e+00
1.2042739774e+00
1.2042734891e+00
1.2042730484e+00
1.2042726521e+00
1.2042722969e+00
1.2042719795e+00
1.2042716961e+00
1.2042714432e+00
1.2042712164e+00
1.2042710110e+00
1.2042708211e+00
1.2042706402e+00
1.2042704601e+00
1.2042702714e+00
1.2042700633e+00
1.2042698240e+00
1.2042695412e+00
1.2042527823e+00
1.2005095234e+00
1.2005355112e+00
1.2005819353e+00
1.2006487890e+00
1.2007350820e+00
1.2008395328e+00
1.2009605836e+00
1.2010964546e+00
1.2012451678e+00
1.2014046133e+00
1.2015725765e+00
1.2017468098e+00
1.2019250594e+00
1.2021051343e+00
1.2022849279e+00
1.2024624795e+00
1.2026359862e+00
1.2028038521e+00
1.2029646883e+00
1.2031173470e+00
1.2032609090e+00
1.2033947015e+00
1.2035182746e+00
1.2036314043e+00
1.2037340607e+00
1.2038263998e+00
1.2039087266e+00
1.2039814804e+00
1.2040451976e+00
1.2041004950e+00
1.2041480351e+00
1.2041885122e+00
1.2042226234e+00
1.2042510591e+00
1.2042744813e+00
1.2042935193e+00
1.2043087557e+00
1.2043207270e+00
1.2043299157e+00
1.2043367547e+00
1.2043416238e+00
1.2043448567e+00
1.2043467402e+00
1.2043475220e+00
1.2043474110e+00
1.2043465855e+00
1.2043451934e+00
1.2043433597e+00
1.2043411866e+00
1.2043387602e+00
1.2043361495e+00
1.2043334129e+00
1.2043305960e+00
1.2043277379e+00
1.2043248682e+00
1.2043220125e+00
1.2043191898e+00
1.2043164165e+00
1.2043137045e+00
1.2043110641e+00
1.2043085024e+00
1.2043060256e+00
1.2043036378e+00
1.2043013427e+00
1.2042991419e+00
1.2042970375e+00
1.2042950299e+00
1.2042931196e+00
1.2042913060e+00
1.2042895889e+00
1.2042879667e+00
1.2042864385e+00
1.2042850021e+00
1.2042836559e+00
1.2042823972e+00
1.2042812238e+00
1.2042801328e+00
1.2042791212e+00
1.2042781860e+00
1.2042773239e+00
1.2042765314e+00
1.2042758053e+00
1.2042751418e+00
1.2042745374e+00
1.2042739883e+00
1.2042734909e+00
1.2042730413e+00
1.2042726354e+00
1.2042722691e+00
1.2042719378e+00
1.2042716369e+00
1.2042713607e+00
1.2042711034e+00
1.2042708580e+00
1.2042706169e+00
1.2042703714e+00
1.2042701123e+00
1.2042698299e+00
1.2042695147e+00
1.2042527074e+00
1.2007409959e+00
1.2007643914e+00
1.2008086272e+00
1.2008721383e+00
1.2009539970e+00
1.2010529866e+00
1.2011676448e+00
1.2012962819e+00
1.2014370384e+00
1.2015879091e+00
1.2017468098e+00
1.2019116020e+00
1.2020801616e+00
1.2022504011e+00
1.2024203339e+00
1.2025880893e+00
1.2027519670e+00
1.2029104426e+00
1.2030622086e+00
1.2032061680e+00
1.2033414600e+00
1.2034674424e+00
1.2035837017e+00
1.2036900260e+00
1.2037864024e+00
1.2038729830e+00
1.2039500738e+00
1.2040180976e+00
1.2040775793e+00
1.2041291096e+00
1.2041733306e+00
1.2042109043e+00
1.2042425015e+00
1.2042687771e+00
1.2042903638e+00
1.2043078551e+00
1.2043218040e+00
1.2043327128e+00
1.2043410362e+00
1.2043471763e+00
1.2043514887e+00
1.2043542806e+00
1.2043558189e+00
1.2043563297e+00
1.2043560068e+00
1.2043550116e+00
1.2043534812e+00
1.2043515283e+00
1.2043492482e+00
1.2043467181e+00
1.2043440034e+00
1.2043411564e+00
1.2043382216e+00
1.2043352339e+00
1.2043322235e+00
1.2043292136e+00
1.2043262246e+00
1.2043232717e+00
1.2043203686e+00
1.2043175253e+00
1.2043147510e+00
1.2043120522e+00
1.2043094350e+00
1.2043069036e+00
1.2043044619e+00
1.2043021124e+00
1.2042998578e+00
1.2042976991e+00
1.2042956379e+00
1.2042936743e+00
1.2042918088e+00
1.2042900407e+00