# vtk DataFile Version 2.0
Blank
ASCII
DATASET STRUCTURED_GRID
DIMENSIONS 101 101 2
POINTS 20402 float
0.0000000000e+00 0.0000000000e+00 0.0000000000e+00
1.0000000000e-02 0.0000000000e+00 0.0000000000e+00
2.0000000000e-02 0.0000000000e+00 0.0000000000e+00
3.0000000000e-02 0.0000000000e+00 0.0000000000e+00
4.0000000000e-02 0.0000000000e+00 0.0000000000e+00
5.0000000000e-02 0.0000000000e+00 0.0000000000e+00
6.0000000000e-02 0.0000000000e+00 0.0000000000e+00
7.0000000000e-02 0.0000000000e+00 0.0000000000e+00
8.0000000000e-02 0.0000000000e+00 0.0000000000e+00
9.0000000000e-02 0.0000000000e+00 0.0000000000e+00
1.0000000000e-01 0.0000000000e+00 0.0000000000e+00
1.1000000000e-01 0.0000000000e+00 0.0000000000e+00
1.2000000000e-01 0.0000000000e+00 0.0000000000e+00
1.3000000000e-01 0.0000000000e+00 0.0000000000e+00
1.4000000000e-01 0.0000000000e+00 0.0000000000e+00
1.5000000000e-01 0.0000000000e+00 0.0000000000e+00
1.6000000000e-01 0.0000000000e+00 0.0000000000e+00
1.7000000000e-01 0.0000000000e+00 0.0000000000e+00
1.8000000000e-01 0.0000000000e+00 0.0000000000e+00
1.9000000000e-01 0.0000000000e+00 0.0000000000e+00
2.0000000000e-01 0.0000000000e+00 0.0000000000e+00
2.1000000000e-01 0.0000000000e+00 0.0000000000e+00
2.2000000000e-01 0.0000000000e+00 0.0000000000e+00
2.3000000000e-01 0.0000000000e+00 0.0000000000e+00
2.4000000000e-01 0.0000000000e+00 0.0000000000e+00
2.5000000000e-01 0.0000000000e+00 0.0000000000e+00
2.6000000000e-01 0.0000000000e+00 0.0000000000e+00
2.7000000000e-01 0.0000000000e+00 0.0000000000e+00
2.8000000000e-01 0.0000000000e+00 0.0000000000e+00
2.9000000000e-01 0.0000000000e+00 0.0000000000e+00
3.0000000000e-01 0.0000000000e+00 0.0000000000e+00
3.1000000000e-01 0.0000000000e+00 0.0000000000e+00
3.2000000000e-01 0.0000000000e+00 0.0000000000e+00
3.3000000000e-01 0.0000000000e+00 0.0000000000e+00
3.4000000000e-01 0.0000000000e+00 0.0000000000e+00
3.5000000000e-01 0.0000000000e+00 0.0000000000e+00
3.6000000000e-01 0.0000000000e+00 0.0000000000e+00
3.7000000000e-01 0.0000000000e+00 0.0000000000e+00
3.8000000000e-01 0.0000000000e+00 0.0000000000e+00
3.9000000000e-01 0.0000000000e+00 0.0000000000e+00
4.0000000000e-01 0.0000000000e+00 0.0000000000e+00
4.1000000000e-01 0.0000000000e+00 0.0000000000e+00
4.2000000000e-01 0.0000000000e+00 0.0000000000e+00
4.3000000000e-01 0.0000000000e+00 0.0000000000e+00
4.4000000000e-01 0.0000000000e+00 0.0000000000e+00
4.5000000000e-01 0.0000000000e+00 0.0000000000e+00
4.6000000000e-01 0.0000000000e+00 0.0000000000e+00
4.7000000000e-01 0.0000000000e+00 0.0000000000e+00
4.8000000000e-01 0.0000000000e+00 0.0000000000e+00
4.9000000000e-01 0.0000000000e+00 0.0000000000e+00
5.0000000000e-01 0.0000000000e+00 0.0000000000e+00
5.1000000000e-01 0.0000000000e+00 0.0000000000e+00
5.2000000000e-01 0.0000000000e+00 0.0000000000e+00
5.3000000000e-01 0.0000000000e+00 0.0000000000e+00
5.4000000000e-01 0.0000000000e+00 0.0000000000e+00
5.5000000000e-01 0.0000000000e+00 0.0000000000e+00
5.6000000000e-01 0.0000000000e+00 0.0000000000e+00
5.7000000000e-01 0.0000000000e+00 0.0000000000e+00
5.8000000000e-01 0.0000000000e+00 0.0000000000e+00
5.9000000000e-01 0.0000000000e+00 0.0000000000e+00
6.0000000000e-01 0.0000000000e+00 0.0000000000e+00
6.1000000000e-01 0.0000000000e+00 0.0000000000e+00
6.2000000000e-01 0.0000000000e+00 0.0000000000e+00
6.3000000000e-01 0.0000000000e+00 0.0000000000e+00
6.4000000000e-01 0.0000000000e+00 0.0000000000e+00
6.5000000000e-01 0.0000000000e+00 0.0000000000e+00
6.6000000000e-01 0.0000000000e+00 0.0000000000e+00
6.7000000000e-01 0.0000000000e+00 0.0000000000e+00
6.8000000000e-01 0.0000000000e+00 0.0000000000e+00
6.9000000000e-01 0.0000000000e+00 0.0000000000e+00
7.0000000000e-01 0.0000000000e+00 0.0000000000e+00
7.1000000000e-01 0.0000000000e+00 0.0000000000e+00
7.2000000000e-01 0.0000000000e+00 0.0000000000e+00
7.3000000000e-01 0.0000000000e+00 0.0000000000e+00
7.4000000000e-01 0.0000000000e+00 0.0000000000e+00
7.5000000000e-01 0.0000000000e+00 0.0000000000e+00
7.6000000000e-01 0.0000000000e+00 0.0000000000e+00
7.7000000000e-01 0.0000000000e+00 0.0000000000e+00
7.8000000000e-01 0.0000000000e+00 0.0000000000e+00
7.9000000000e-01 0.0000000000e+00 0.0000000000e+00
8.0000000000e-01 0.0000000000e+00 0.0000000000e+00
8.1000000000e-01 0.0000000000e+00 0.0000000000e+00
8.2000000000e-01 0.0000000000e+00 0.0000000000e+00
8.3000000000e-01 0.0000000000e+00 0.0000000000e+00
8.4000000000e-01 0.0000000000e+00 0.0000000000e+00
8.5000000000e-01 0.0000000000e+00 0.0000000000e+00
8.6000000000e-01 0.0000000000e+00 0.0000000000e+00
8.7000000000e-01 0.0000000000e+00 0.0000000000e+00
8.8000000000e-01 0.0000000000e+00 0.0000000000e+00
8.9000000000e-01 0.0000000000e+00 0.0000000000e+00
9.0000000000e-01 0.0000000000e+00 0.0000000000e+00
9.1000000000e-01 0.0000000000e+00 0.0000000000e+00
9.2000000000e-01 0.0000000000e+00 0.0000000000e+00
9.3000000000e-01 0.0000000000e+00 0.0000000000e+00
9.4000000000e-01 0.0000000000e+00 0.0000000000e+00
9.5000000000e-01 0.0000000000e+00 0.0000000000e+00
9.6000000000e-01 0.0000000000e+00 0.0000000000e+00
9.7000000000e-01 0.0000000000e+00 0.0000000000e+00
9.8000000000e-01 0.0000000000e+00 0.0000000000e+00
9.9000000000e-01 0.0000000000e+00 0.0000000000e+00
1.0000000000e+00 0.0000000000e+00 0.0000000000e+00
0.0000000000e+00 1.0000000000e-02 0.0000000000e+00
1.0000000000e-02 1.0000000000e-02 0.0000000000e+00
2.0000000000e-02 1.0000000000e-02 0.0000000000e+00
3.0000000000e-02 1.0000000000e-02 0.0000000000e+00
4.0000000000e-02 1.0000000000e-02 0.0000000000e+00
5.0000000000e-02 1.0000000000e-02 0.0000000000e+00
6.0000000000e-02 1.0000000000e-02 0.0000000000e+00
7.0000000000e-02 1.0000000000e-02 0.0000000000e+00
8.0000000000e-02 1.0000000000e-02 0.0000000000e+00
9.0000000000e-02 1.0000000000e-02 0.0000000000e+00
1.0000000000e-01 1.0000000000e-02 0.0000000000e+00
1.1000000000e-01 1.0000000000e-02 0.0000000000e+00
1.2000000000e-01 1.0000000000e-02 0.0000000000e+00
1.3000000000e-01 1.0000000000e-02 0.0000000000e+00
1.4000000000e-01 1.0000000000e-02 0.0000000000e+00
1.5000000000e-01 1.0000000000e-02 0.0000000000e+00
1.6000000000e-01 1.0000000000e-02 0.0000000000e+00
1.7000000000e-01 1.0000000000e-02 0.0000000000e+00
1.8000000000e-01 1.0000000000e-02 0.0000000000e+00
1.9000000000e-01 1.0000000000e-02 0.0000000000e+00
2.0000000000e-01 1.0000000000e-02 0.0000000000e+00
2.1000000000e-01 1.0000000000e-02 0.0000000000e+00
2.2000000000e-01 1.0000000000e-02 0.0000000000e+00
2.3000000000e-01 1.0000000000e-02 0.0000000000e+00
2.4000000000e-01 1.0000000000e-02 0.0000000000e+00
2.5000000000e-01 1.0000000000e-02 0.0000000000e+00
2.6000000000e-01 1.0000000000e-02 0.0000000000e+00
2.7000000000e-01 1.0000000000e-02 0.0000000000e+00
2.8000000000e-01 1.0000000000e-02 0.0000000000e+00
2.9000000000e-01 1.0000000000e-02 0.0000000000e+00
3.0000000000e-01 1.0000000000e-02 0.0000000000e+00
3.1000000000e-01 1.0000000000e-02 0.0000000000e+00
3.2000000000e-01 1.0000000000e-02 0.0000000000e+00
3.3000000000e-01 1.0000000000e-02 0.0000000000e+00
3.4000000000e-01 1.0000000000e-02 0.0000000000e+00
3.5000000000e-01 1.0000000000e-02 0.0000000000e+00
3.6000000000e-01 1.0000000000e-02 0.0000000000e+00
3.7000000000e-01 1.0000000000e-02 0.0000000000e+00
3.8000000000e-01 1.0000000000e-02 0.0000000000e+00
3.9000000000e-01 1.0000000000e-02 0.0000000000e+00
4.0000000000e-01 1.0000000000e-02 0.0000000000e+00
4.1000000000e-01 1.0000000000e-02 0.0000000000e+00
4.2000000000e-01 1.0000000000e-02 0.0000000000e+00
4.3000000000e-01 1.0000000000e-02 0.0000000000e+00
4.4000000000e-01 1.0000000000e-02 0.0000000000e+00
4.5000000000e-01 1.0000000000e-02 0.0000000000e+00
4.6000000000e-01 1.0000000000e-02 0.0000000000e+00
4.7000000000e-01 1.0000000000e-02 0.0000000000e+00
4.8000000000e-01 1.0000000000e-02 0.0000000000e+00
4.9000000000e-01 1.0000000000e-02 0.0000000000e+00
5.0000000000e-01 1.0000000000e-02 0.0000000000e+00
5.1000000000e-01 1.0000000000e-02 0.0000000000e+00
5.2000000000e-01 1.0000000000e-02 0.0000000000e+00
5.3000000000e-01 1.0000000000e-02 0.0000000000e+00
5.4000000000e-01 1.0000000000e-02 0.0000000000e+00
5.5000000000e-01 1.0000000000e-02 0.0000000000e+00
5.6000000000e-01 1.0000000000e-02 0.0000000000e+00
5.7000000000e-01 1.0000000000e-02 0.0000000000e+00
5.8000000000e-01 1.0000000000e-02 0.0000000000e+00
5.9000000000e-01 1.0000000000e-02 0.0000000000e+00
6.0000000000e-01 1.0000000000e-02 0.0000000000e+00
6.1000000000e-01 1.0000000000e-02 0.0000000000e+00
6.2000000000e-01 1.0000000000e-02 0.0000000000e+00
6.3000000000e-01 1.0000000000e-02 0.0000000000e+00
6.4000000000e-01 1.0000000000e-02 0.0000000000e+00
6.5000000000e-01 1.0000000000e-02 0.0000000000e+00
6.6000000000e-01 1.0000000000e-02 0.0000000000e+00
6.7000000000e-01 1.0000000000e-02 0.0000000000e+00
6.8000000000e-01 1.0000000000e-02 0.0000000000e+00
6.9000000000e-01 1.0000000000e-02 0.0000000000e+00
7.0000000000e-01 1.0000000000e-02 0.0000000000e+00
7.1000000000e-01 1.0000000000e-02 0.0000000000e+00
7.2000000000e-01 1.0000000000e-02 0.0000000000e+00
7.3000000000e-01 1.0000000000e-02 0.0000000000e+00
7.4000000000e-01 1.0000000000e-02 0.0000000000e+00
7.5000000000e-01 1.0000000000e-02 0.0000000000e+00
7.6000000000e-01 1.0000000000e-02 0.0000000000e+00
7.7000000000e-01 1.0000000000e-02 0.0000000000e+00
7.8000000000e-01 1.0000000000e-02 0.0000000000e+00
7.9000000000e-01 1.0000000000e-02 0.0000000000e+00
8.0000000000e-01 1.0000000000e-02 0.0000000000e+00
8.1000000000e-01 1.0000000000e-02 0.0000000000e+00
8.2000000000e-01 1.0000000000e-02 0.0000000000e+00
8.3000000000e-01 1.0000000000e-02 0.0000000000e+00
8.4000000000e-01 1.0000000000e-02 0.0000000000e+00
8.5000000000e-01 1.0000000000e-02 0.0000000000e+00
8.6000000000e-01 1.0000000000e-02 0.0000000000e+00
8.7000000000e-01 1.0000000000e-02 0.0000000000e+00
8.8000000000e-01 1.0000000000e-02 0.0000000000e+00
8.9000000000e-01 1.0000000000e-02 0.0000000000e+00
9.0000000000e-01 1.0000000000e-02 0.0000000000e+00
9.1000000000e-01 1.0000000000e-02 0.0000000000e+00
9.2000000000e-01 1.0000000000e-02 0.0000000000e+00
[...]
CELL_DATA 10000

SCALARS massDensity float
LOOKUP_TABLE default
1.2011201945e+00
1.2011283777e+00
1.2011509045e+00
1.2011838194e+00
1.2012268311e+00
1.2012795449e+00
1.2013414651e+00
1.2014120052e+00
1.2014904983e+00
1.2015762097e+00
1.2016683493e+00
1.2017660852e+00
1.2018685560e+00
1.2019748849e+00
1.2020841916e+00
1.2021956049e+00
1.2023082738e+00
1.2024213785e+00
1.2025341390e+00
1.2026458243e+00
1.2027557584e+00
1.2028633268e+00
1.2029679796e+00
1.2030692353e+00
1.2031666819e+00
1.2032599773e+00
1.2033488480e+00
1.2034330879e+00
1.2035125544e+00
1.2035871659e+00
1.2036568962e+00
1.2037217706e+00
1.2037818600e+00
1.2038372759e+00
1.2038881642e+00
1.2039347004e+00
1.2039770835e+00
1.2040155309e+00
1.2040502737e+00
1.2040815517e+00
1.2041096095e+00
1.2041346926e+00
1.2041570441e+00
1.2041769018e+00
1.2041944960e+00
1.2042100472e+00
1.2042237648e+00
1.2042358460e+00
1.2042464747e+00
1.2042558215e+00
1.2042640429e+00
1.2042712819e+00
1.2042776679e+00
1.2042833174e+00
1.2042883341e+00
1.2042928100e+00
1.2042968255e+00
1.2043004510e+00
1.2043037466e+00
1.2043067640e+00
1.2043095460e+00
1.2043121285e+00
1.2043145400e+00
1.2043168033e+00
1.2043189354e+00
1.2043209484e+00
1.2043228503e+00
1.2043246451e+00
1.2043263336e+00
1.2043279142e+00
1.2043293827e+00
1.2043307335e+00
1.2043319598e+00
1.2043330540e+00
1.2043340085e+00
1.2043348157e+00
1.2043354690e+00
1.2043359628e+00
1.2043362929e+00
1.2043364571e+00
1.2043364554e+00
1.2043362900e+00
1.2043359656e+00
1.2043354896e+00
1.2043348717e+00
1.2043341241e+00
1.2043332613e+00
1.2043322996e+00
1.2043312569e+00
1.2043301523e+00
1.2043290061e+00
1.2043278389e+00
1.2043266717e+00
1.2043255251e+00
1.2043244194e+00
1.2043233731e+00
1.2043224024e+00
1.2043215193e+00
1.2043207306e+00
1.2043203085e+00
1.2011283777e+00
1.2011357567e+00
1.2011578106e+00
1.2011903735e+00
1.2012331137e+00
1.2012856082e+00
1.2013473439e+00
1.2014177221e+00
1.2014960691e+00
1.2015816452e+00
1.2016736580e+00
1.2017712734e+00
1.2018736300e+00
1.2019798501e+00
1.2020890539e+00
1.2022003701e+00
1.2023129485e+00
1.2024259691e+00
1.2025386530e+00
1.2026502689e+00
1.2027601417e+00
1.2028676564e+00
1.2029722638e+00
1.2030734821e+00
1.2031708994e+00
1.2032641731e+00
1.2033530296e+00
1.2034372619e+00
1.2035167275e+00
1.2035913432e+00
1.2036610824e+00
1.2037259691e+00
1.2037860732e+00
1.2038415045e+00
1.2038924079e+00
1.2039389570e+00
1.2039813493e+00
1.2040198004e+00
1.2040545397e+00
1.2040858051e+00
1.2041138396e+00
1.2041388869e+00
1.2041611884e+00
1.2041809803e+00
1.2041984916e+00
1.2042139412e+00
1.2042275376e+00
1.2042394768e+00
1.2042499422e+00
1.2042591035e+00
1.2042671173e+00
1.2042741263e+00
1.2042802602e+00
1.2042856359e+00
1.2042903578e+00
1.2042945190e+00
1.2042982013e+00
1.2043014765e+00
1.2043044069e+00
1.2043070462e+00
1.2043094398e+00
1.2043116263e+00
1.2043136374e+00
1.2043154991e+00
1.2043172321e+00
1.2043188522e+00
1.2043203712e+00
1.2043217974e+00
1.2043231355e+00
1.2043243880e+00
1.2043255548e+00
1.2043266342e+00
1.2043276230e+00
1.2043285168e+00
1.2043293111e+00
1.2043300006e+00
1.2043305806e+00
1.2043310466e+00
1.2043313952e+00
1.2043316237e+00
1.2043317312e+00
1.2043317181e+00
1.2043315865e+00
1.2043313405e+00
1.2043309859e+00
1.2043305304e+00
1.2043299834e+00
1.2043293557e+00
1.2043286596e+00
1.2043279086e+00
1.2043271169e+00
1.2043262993e+00
1.2043254708e+00
1.2043246461e+00
1.2043238395e+00
1.2043230637e+00
1.2043223296e+00
1.2043216448e+00
1.2043210129e+00
1.2043208300e+00
1.2011509045e+00
1.2011578106e+00
1.2011795330e+00
1.2012117475e+00
1.2012541092e+00
1.2013061868e+00
1.2013674613e+00
1.2014373331e+00
1.2015151284e+00
1.2016001104e+00
1.2016914895e+00
1.2017884369e+00
1.2018900952e+00
1.2019955928e+00
1.2021040547e+00
1.2022146156e+00
1.2023264302e+00
1.2024386846e+00
1.2025506039e+00
1.2026614627e+00
1.2027705893e+00
1.2028773737e+00
1.2029812696e+00
1.2030817990e+00
1.2031785522e+00
1.2032711896e+00
1.2033594390e+00
1.2034430955e+00
1.2035220169e+00
1.2035961216e+00
1.2036653826e+00
1.2037298243e+00
1.2037895159e+00
1.2038445670e+00
1.2038951213e+00
1.2039413514e+00
1.2039834533e+00
1.2040216415e+00
1.2040561434e+00
1.2040871956e+00
1.2041150390e+00
1.2041399157e+00
1.2041620651e+00
1.2041817220e+00
1.2041991131e+00
1.2042144561e+00
1.2042279575e+00
1.2042398120e+00
1.2042502015e+00
1.2042592945e+00
1.2042672461e+00
1.2042741982e+00
1.2042802796e+00
1.2042856062e+00
1.2042902820e+00
1.2042943994e+00
1.2042980400e+00
1.2043012753e+00
1.2043041674e+00
1.2043067700e+00
1.2043091289e+00
1.2043112826e+00
1.2043132632e+00
1.2043150972e+00
1.2043168055e+00
1.2043184047e+00
1.2043199069e+00
1.2043213208e+00
1.2043226520e+00
1.2043239031e+00
1.2043250745e+00
1.2043261648e+00
1.2043271711e+00
1.2043280891e+00
1.2043289143e+00
1.2043296413e+00
1.2043302650e+00
1.2043307806e+00
1.2043311841e+00
1.2043314721e+00
1.2043316428e+00
1.2043316958e+00
1.2043316322e+00
1.2043314550e+00
1.2043311689e+00
1.2043307805e+00
1.2043302981e+00
1.2043297318e+00
1.2043290929e+00
1.2043283941e+00
1.2043276490e+00
1.2043268717e+00
1.2043260769e+00
1.2043252788e+00
1.2043244911e+00
1.2043237265e+00
1.2043229956e+00
1.2043223070e+00
1.2043216662e+00
1.2043216362e+00
1.2011838194e+00
1.2011903735e+00
1.2012117475e+00
1.2012435326e+00
1.2012853864e+00
1.2013368769e+00
1.2013974868e+00
1.2014666180e+00
1.2015436012e+00
1.2016277042e+00
1.2017181445e+00
1.2018140996e+00
1.2019147207e+00
1.2020191433e+00
1.2021265016e+00
1.2022359378e+00
1.2023466156e+00
1.2024577280e+00
1.2025685091e+00
1.2026782392e+00
1.2027862545e+00
1.2028919500e+00
1.2029947859e+00
1.2030942882e+00
1.2031900522e+00
1.2032817410e+00
1.2033690860e+00
1.2034518839e+00
1.2035299948e+00
1.2036033372e+00
1.2036718854e+00
1.2037356631e+00
1.2037947395e+00
1.2038492227e+00
1.2038992555e+00
1.2039450085e+00
1.2039866761e+00
1.2040244702e+00
1.2040586164e+00
1.2040893484e+00
1.2041169049e+00
1.2041415251e+00
1.2041634462e+00
1.2041829000e+00
1.2042001110e+00
1.2042152944e+00
1.2042286546e+00
1.2042403838e+00
1.2042506621e+00
1.2042596560e+00
1.2042675190e+00
1.2042743915e+00
1.2042804009e+00
1.2042856618e+00
1.2042902774e+00
1.2042943392e+00
1.2042979281e+00
1.2043011150e+00
1.2043039620e+00
1.2043065223e+00
1.2043088417e+00
1.2043109588e+00
1.2043129059e+00
1.2043147097e+00
1.2043163915e+00
1.2043179681e+00
1.2043194522e+00
1.2043208530e+00
1.2043221763e+00
1.2043234252e+00
1.2043246006e+00
1.2043257012e+00
1.2043267243e+00
1.2043276659e+00
1.2043285212e+00
1.2043292848e+00
1.2043299512e+00
1.2043305153e+00
1.2043309723e+00
1.2043313183e+00
1.2043315507e+00
1.2043316681e+00
1.2043316706e+00
1.2043315602e+00
1.2043313406e+00
1.2043310173e+00
1.2043305976e+00
1.2043300906e+00
1.2043295069e+00
1.2043288584e+00
1.2043281580e+00
1.2043274194e+00
1.2043266567e+00
1.2043258839e+00
1.2043251145e+00
1.2043243611e+00
1.2043236349e+00
1.2043229450e+00
1.2043222985e+00
1.2043224316e+00
1.2012268311e+00
1.2012331137e+00
1.2012541092e+00
1.2012853864e+00
1.2013266098e+00
1.2013773534e+00
1.2014371044e+00
1.2015052716e+00
1.2015811918e+00
1.2016641420e+00
1.2017533479e+00
1.2018479979e+00
1.2019472527e+00
1.2020502597e+00
1.2021561631e+00
1.2022641174e+00
1.2023732959e+00
1.2024829034e+00
1.2025921827e+00
1.2027004250e+00
1.2028069741e+00
1.2029112342e+00
1.2030126716e+00
1.2031108198e+00
1.2032052788e+00
1.2032957170e+00
1.2033818689e+00
1.2034635349e+00
1.2035405762e+00
1.2036129136e+00
1.2036805213e+00
1.2037434233e+00
1.2038016875e+00
1.2038554214e+00
1.2039047653e+00
1.2039498883e+00
1.2039909818e+00
1.2040282552e+00
1.2040619307e+00
1.2040922392e+00
1.2041194156e+00
1.2041436964e+00
1.2041653149e+00
1.2041845000e+00
1.2042014728e+00
1.2042164455e+00
1.2042296194e+00
1.2042411841e+00
1.2042513170e+00
1.2042601822e+00
1.2042679311e+00
1.2042747020e+00
1.2042806204e+00
1.2042857997e+00
1.2042903414e+00
1.2042943361e+00
1.2042978636e+00
1.2043009943e+00
1.2043037894e+00
1.2043063020e+00
1.2043085774e+00
1.2043106543e+00
1.2043125650e+00
1.2043143363e+00
1.2043159897e+00
1.2043175423e+00
1.2043190072e+00
1.2043203939e+00
1.2043217086e+00
1.2043229548e+00
1.2043241335e+00
1.2043252439e+00
1.2043262832e+00
1.2043272477e+00
1.2043281323e+00
1.2043289316e+00
1.2043296398e+00
1.2043302512e+00
1.2043307605e+00
1.2043311632e+00
1.2043314557e+00
1.2043316357e+00
1.2043317026e+00
1.2043316571e+00
1.2043315020e+00
1.2043312418e+00
1.2043308828e+00
1.2043304332e+00
1.2043299028e+00
1.2043293026e+00
1.2043286452e+00
1.2043279436e+00
1.2043272117e+00
1.2043264631e+00
1.2043257115e+00
1.2043249694e+00
1.2043242484e+00
1.2043235585e+00
1.2043229079e+00
1.2043232046e+00
1.2012795449e+00
1.2012856082e+00
1.2013061868e+00
1.2013368769e+00
1.2013773534e+00
1.2014271979e+00
1.2014859067e+00
1.2015528967e+00
1.2016275159e+00
1.2017090511e+00
1.2017967410e+00
1.2018897856e+00
1.2019873601e+00
1.2020886243e+00
1.2021927374e+00
1.2022988664e+00
1.2024061992e+00
1.2025139526e+00
1.2026213830e+00
1.2027277922e+00
1.2028325360e+00
1.2029350275e+00
1.2030347430e+00
1.2031312229e+00
1.2032240750e+00
1.2033129725e+00
1.2033976554e+00
1.2034779268e+00
1.2035536513e+00
1.2036247505e+00
1.2036911999e+00
1.2037530228e+00
1.2038102868e+00
1.2038630971e+00
1.2039115924e+00
1.2039559386e+00
1.2039963244e+00
1.2040329554e+00
1.2040660504e+00
1.2040958360e+00
1.2041225437e+00
1.2041464052e+00
1.2041676504e+00
1.2041865037e+00
1.2042031827e+00
1.2042178956e+00
1.2042308402e+00
1.2042422029e+00
1.2042521576e+00
1.2042608658e+00
1.2042684760e+00
1.2042751242e+00
1.2042809337e+00
1.2042860160e+00
1.2042904709e+00
1.2042943875e+00
1.2042978445e+00
1.2043009112e+00
1.2043036482e+00
1.2043061078e+00
1.2043083351e+00
1.2043103685e+00
1.2043122401e+00
1.2043139766e+00
1.2043155999e+00
1.2043171273e+00
1.2043185719e+00
1.2043199437e+00
1.2043212491e+00
1.2043224920e+00
1.2043236736e+00
1.2043247932e+00
1.2043258483e+00
1.2043268350e+00
1.2043277483e+00
1.2043285825e+00
1.2043293315e+00
1.2043299891e+00
1.2043305496e+00
1.2043310075e+00
1.2043313586e+00
1.2043315998e+00
1.2043317292e+00
1.2043317468e+00
1.2043316543e+00
1.2043314552e+00
1.2043311549e+00
1.2043307608e+00
1.2043302816e+00
1.2043297281e+00
1.2043291119e+00
1.2043284458e+00
1.2043277433e+00
1.2043270180e+00
1.2043262834e+00
1.2043255524e+00
1.2043248369e+00
1.2043241475e+00
1.2043234933e+00
1.2043239500e+00
1.2013414651e+00
1.2013473439e+00
1.2013674613e+00
1.2013974868e+00
1.2014371044e+00
1.2014859067e+00
1.2015433996e+00
1.2016090127e+00
1.2016821053e+00
1.2017619790e+00
1.2018478858e+00
1.2019390422e+00
1.2020346381e+00
1.2021338509e+00
1.2022358549e+00
1.2023398345e+00
1.2024449926e+00
1.2025505624e+00
1.2026558140e+00
1.2027600641e+00
1.2028626804e+00
1.2029630888e+00
1.2030607752e+00
1.2031552902e+00
1.2032462487e+00
1.2033333316e+00
1.2034162835e+00
1.2034949125e+00
1.2035690854e+00
1.2036387264e+00
1.2037038109e+00
1.2037643628e+00
1.2038204480e+00
1.2038721703e+00
1.2039196652e+00
1.2039630961e+00
1.2040026475e+00
1.2040385213e+00
1.2040709315e+00
1.2041001007e+00
1.2041262551e+00
1.2041496223e+00
1.2041704269e+00
1.2041888891e+00
1.2042052215e+00
1.2042196283e+00
1.2042323030e+00
1.2042434280e+00
1.2042531736e+00
1.2042616980e+00
1.2042691464e+00
1.2042756520e+00
1.2042813356e+00
1.2042863064e+00
1.2042906622e+00
1.2042944904e+00
1.2042978683e+00
1.2043008640e+00
1.2043035368e+00
1.2043059387e+00
1.2043081139e+00
1.2043101005e+00
1.2043119305e+00
1.2043136304e+00
1.2043152221e+00
1.2043167230e+00
1.2043181465e+00
1.2043195027e+00
1.2043207982e+00
1.2043220373e+00
1.2043232213e+00
1.2043243497e+00
1.2043254201e+00
1.2043264285e+00
1.2043273698e+00
1.2043282382e+00
1.2043290272e+00
1.2043297301e+00
1.2043303405e+00
1.2043308523e+00
1.2043312606e+00
1.2043315612e+00
1.2043317515e+00
1.2043318304e+00
1.2043317986e+00
1.2043316587e+00
1.2043314152e+00
1.2043310745e+00
1.2043306448e+00
1.2043301360e+00
1.2043295594e+00
1.2043289273e+00
1.2043282529e+00
1.2043275498e+00
1.2043268316e+00
1.2043261112e+00
1.2043254011e+00
1.2043247123e+00
1.2043240548e+00
1.2043246661e+00
1.2014120052e+00
1.2014177221e+00
1.2014373331e+00
1.2014666180e+00
1.2015052716e+00
1.2015528967e+00
1.2016090127e+00
1.2016730614e+00
1.2017444182e+00
1.2018223991e+00
1.2019062746e+00
1.2019952774e+00
1.2020886173e+00
1.2021854891e+00
1.2022850871e+00
1.2023866133e+00
1.2024892900e+00
1.2025923670e+00
1.2026951324e+00
1.2027969176e+00
1.2028971063e+00
1.2029951366e+00
1.2030905076e+00
1.2031827796e+00
1.2032715775e+00
1.2033565890e+00
1.2034375660e+00
1.2035143201e+00
1.2035867228e+00
1.2036546992e+00
1.2037182265e+00
1.2037773276e+00
1.2038320677e+00
1.2038825479e+00
1.2039289014e+00
1.2039712872e+00
1.2040098861e+00
1.2040448951e+00
1.2040765237e+00
1.2041049887e+00
1.2041305115e+00
1.2041533138e+00
1.2041736153e+00
1.2041916306e+00
1.2042075674e+00
1.2042216247e+00
1.2042339915e+00
1.2042448457e+00
1.2042543534e+00
1.2042626688e+00
1.2042699339e+00
1.2042762784e+00
1.2042818202e+00
1.2042866660e+00
1.2042909114e+00
1.2042946416e+00
1.2042979324e+00
1.2043008502e+00
1.2043034536e+00
1.2043057932e+00
1.2043079128e+00
1.2043098498e+00
1.2043116358e+00
1.2043132974e+00
1.2043148561e+00
1.2043163295e+00
1.2043177311e+00
1.2043190710e+00
1.2043203563e+00
1.2043215912e+00
1.2043227773e+00
1.2043239141e+00
1.2043249994e+00
1.2043260290e+00
1.2043269979e+00
1.2043278998e+00
1.2043287279e+00
1.2043294750e+00
1.2043301342e+00
1.2043306988e+00
1.2043311628e+00
1.2043315213e+00
1.2043317708e+00
1.2043319091e+00
1.2043319362e+00
1.2043318536e+00
1.2043316648e+00
1.2043313757e+00
1.2043309935e+00
1.2043305277e+00
1.2043299889e+00
1.2043293893e+00
1.2043287417e+00
1.2043280597e+00
1.2043273569e+00
1.2043266467e+00
1.2043259416e+00
1.2043252534e+00
1.2043245923e+00
1.2043253518e+00
1.2014904983e+00
1.2014960691e+00
1.2015151284e+00
1.2015436012e+00
1.2015811918e+00
1.2016275159e+00
1.2016821053e+00
1.2017444182e+00
1.2018138451e+00
1.2018897216e+00
1.2019713359e+00
1.2020579421e+00
1.2021487690e+00
1.2022430341e+00
1.2023399513e+00
1.2024387449e+00
1.2025386564e+00
1.2026389568e+00
1.2027389515e+00
1.2028379911e+00
1.2029354744e+00
1.2030308557e+00
1.2031236465e+00
1.2032134201e+00
1.2032998105e+00
1.2033825150e+00
1.2034612913e+00
1.2035359576e+00
1.2036063877e+00
1.2036725104e+00
1.2037343027e+00
1.2037917881e+00
1.2038450295e+00
1.2038941264e+00
1.2039392079e+00
1.2039804296e+00
1.2040179671e+00
1.2040520127e+00
1.2040827700e+00
1.2041104504e+00
1.2041352690e+00
1.2041574420e+00
1.2041771826e+00
1.2041946999e+00
1.2042101958e+00
1.2042238639e+00
1.2042358878e+00
1.2042464407e+00
1.2042556839e+00
1.2042637674e+00
1.2042708292e+00
1.2042769955e+00
1.2042823811e+00
1.2042870895e+00
1.2042912140e+00
1.2042948375e+00
1.2042980337e+00
1.2043008678e+00
1.2043033967e+00
1.2043056700e+00
1.2043077307e+00
1.2043096155e+00
1.2043113557e+00
1.2043129772e+00
1.2043145018e+00
1.2043159469e+00
1.2043173259e+00
1.2043186492e+00
1.2043199239e+00
1.2043211543e+00
1.2043223422e+00
1.2043234872e+00
1.2043245870e+00
1.2043256376e+00
1.2043266334e+00
1.2043275682e+00
1.2043284346e+00
1.2043292251e+00
1.2043299320e+00
1.2043305480e+00
1.2043310663e+00
1.2043314812e+00
1.2043317882e+00
1.2043319843e+00
1.2043320683e+00
1.2043320410e+00
1.2043319051e+00
1.2043316655e+00
1.2043313290e+00
1.2043309043e+00
1.2043304017e+00
1.2043298329e+00
1.2043292107e+00
1.2043285486e+00
1.2043278603e+00
1.2043271594e+00
1.2043264589e+00
1.2043257709e+00
1.2043251061e+00
1.2043260070e+00
1.2015762097e+00
1.2015816452e+00
1.2016001104e+00
1.2016277042e+00
1.2016641420e+00
1.2017090511e+00
1.2017619790e+00
1.2018223991e+00
1.2018897216e+00
1.2019633006e+00
1.2020424464e+00
1.2021264340e+00
1.2022145163e+00
1.2023059323e+00
1.2023999207e+00
1.2024957272e+00
1.2025926174e+00
1.2026898822e+00
1.2027868494e+00
1.2028828875e+00
1.2029774146e+00
1.2030699002e+00
1.2031598719e+00
1.2032469144e+00
1.2033306745e+00
1.2034108574e+00
1.2034872295e+00
1.2035596137e+00
1.2036278891e+00
1.2036919858e+00
1.2037518828e+00
1.2038076024e+00
1.2038592067e+00
1.2039067917e+00
1.2039504836e+00
1.2039904330e+00
1.2040268109e+00
1.2040598035e+00
1.2040896087e+00
1.2041164314e+00
1.2041404806e+00
1.2041619654e+00
1.2041810931e+00
1.2041980660e+00
1.2042130802e+00
1.2042263229e+00
1.2042379724e+00
1.2042481962e+00
1.2042571509e+00
1.2042649817e+00
1.2042718223e+00
1.2042777951e+00
1.2042830112e+00
1.2042875711e+00
1.2042915652e+00
1.2042950740e+00
1.2042981693e+00
1.2043009141e+00
1.2043033641e+00
1.2043055676e+00
1.2043075665e+00
1.2043093969e+00
1.2043110894e+00
1.2043126698e+00
1.2043141593e+00
1.2043155753e+00
1.2043169313e+00
1.2043182376e+00
1.2043195015e+00
1.2043207273e+00
1.2043219168e+00
1.2043230699e+00
1.2043241840e+00
1.2043252550e+00
1.2043262774e+00
1.2043272444e+00
1.2043281485e+00
1.2043289814e+00
1.2043297350e+00
1.2043304013e+00
1.2043309725e+00
1.2043314423e+00
1.2043318051e+00
1.2043320571e+00
1.2043321962e+00
1.2043322223e+00
1.2043321373e+00
1.2043319454e+00
1.2043316525e+00
1.2043312670e+00
1.2043307988e+00
1.2043302592e+00
1.2043296609e+00
1.2043290174e+00
1.2043283426e+00
1.2043276501e+00
1.2043269535e+00
1.2043262651e+00
1.2043255963e+00
1.2043266311e+00
1.2016683493e+00
1.2016736580e+00
1.2016914895e+00
1.2017181445e+00
1.2017533479e+00
1.2017967410e+00
1.2018478858e+00
1.2019062746e+00
1.2019713359e+00
1.2020424464e+00
1.2021189380e+00
1.2022001107e+00
1.2022852405e+00
1.2023735930e+00
1.2024644303e+00
1.2025570245e+00
1.2026506636e+00
1.2027446638e+00
1.2028383734e+00
1.2029311834e+00
1.2030225298e+00
1.2031119014e+00
1.2031988398e+00
1.2032829457e+00
1.2033638759e+00
1.2034413474e+00
1.2035151333e+00
1.2035850639e+00
1.2036510215e+00
1.2037129400e+00
1.2037707985e+00
1.2038246196e+00
1.2038744631e+00
1.2039204227e+00
1.2039626200e+00
1.2040012014e+00
1.2040363320e+00
1.2040681924e+00
1.2040969736e+00
1.2041228740e+00
1.2041460953e+00
1.2041668401e+00
1.2041853084e+00
1.2042016960e+00
1.2042161919e+00
1.2042289774e+00
1.2042402243e+00
1.2042500946e+00
1.2042587394e+00
1.2042662991e+00
1.2042729026e+00
1.2042786681e+00
1.2042837031e+00
1.2042881047e+00
1.2042919600e+00
1.2042953473e+00
1.2042983357e+00
1.2043009866e+00
1.2043033538e+00
1.2043054844e+00
1.2043074192e+00
1.2043091933e+00
1.2043108367e+00
1.2043123748e+00
1.2043138285e+00
1.2043152149e+00
1.2043165476e+00
1.2043178368e+00
1.2043190897e+00
1.2043203108e+00
1.2043215020e+00
1.2043226629e+00
1.2043237911e+00
1.2043248824e+00
1.2043259310e+00
1.2043269298e+00
1.2043278707e+00
1.2043287453e+00
1.2043295446e+00
1.2043302598e+00
1.2043308827e+00
1.2043314057e+00
1.2043318227e+00
1.2043321289e+00
1.2043323212e+00
1.2043323988e+00
1.2043323627e+00
1.2043322163e+00
1.2043319652e+00
1.2043316170e+00
1.2043311812e+00
1.2043306691e+00
1.2043300932e+00
1.2043294669e+00
1.2043288043e+00
1.2043281193e+00
1.2043274256e+00
1.2043267363e+00
1.2043260630e+00
1.2043272236e+00
1.2017660852e+00
1.2017712734e+00
1.2017884369e+00
1.2018140996e+00
1.2018479979e+00
1.2018897856e+00
1.2019390422e+00
1.2019952774e+00
1.2020579421e+00
1.2021264340e+00
1.2022001107e+00
1.2022782961e+00
1.2023602938e+00
1.2024453944e+00
1.2025328884e+00
1.2026220724e+00
1.2027122620e+00
1.2028027965e+00
1.2028930496e+00
1.2029824329e+00
1.2030704045e+00
1.2031564705e+00
1.2032401910e+00
1.2033211797e+00
1.2033991080e+00
1.2034737019e+00
1.2035447444e+00
1.2036120712e+00
1.2036755704e+00
1.2037351775e+00
1.2037908738e+00
1.2038426806e+00
1.2038906566e+00
1.2039348915e+00
1.2039755037e+00
1.2040126337e+00
1.2040464414e+00
1.2040771004e+00
1.2041047953e+00
1.2041297170e+00
1.2041520603e+00
1.2041720199e+00
1.2041897888e+00
1.2042055551e+00
1.2042195014e+00
1.2042318017e+00
1.2042426218e+00
1.2042521172e+00
1.2042604338e+00
1.2042677062e+00
1.2042740588e+00
1.2042796053e+00
1.2042844491e+00
1.2042886837e+00
1.2042923933e+00
1.2042956530e+00
1.2042985297e+00
1.2043010826e+00
1.2043033638e+00
1.2043054188e+00
1.2043072874e+00
1.2043090037e+00
1.2043105970e+00
1.2043120920e+00
1.2043135094e+00
1.2043148660e+00
1.2043161752e+00
1.2043174472e+00
1.2043186891e+00
1.2043199056e+00
1.2043210984e+00
1.2043222672e+00