# vtk DataFile Version 2.0
Blank
ASCII
DATASET STRUCTURED_GRID
DIMENSIONS 101 101 2
POINTS 20402 float
0.0000000000e+00 0.0000000000e+00 0.0000000000e+00
1.0000000000e-02 0.0000000000e+00 0.0000000000e+00
2.0000000000e-02 0.0000000000e+00 0.0000000000e+00
3.0000000000e-02 0.0000000000e+00 0.0000000000e+00
4.0000000000e-02 0.0000000000e+00 0.0000000000e+00
5.0000000000e-02 0.0000000000e+00 0.0000000000e+00
6.0000000000e-02 0.0000000000e+00 0.0000000000e+00
7.0000000000e-02 0.0000000000e+00 0.0000000000e+00
8.0000000000e-02 0.0000000000e+00 0.0000000000e+00
9.0000000000e-02 0.0000000000e+00 0.0000000000e+00
1.0000000000e-01 0.0000000000e+00 0.0000000000e+00
1.1000000000e-01 0.0000000000e+00 0.0000000000e+00
1.2000000000e-01 0.0000000000e+00 0.0000000000e+00
1.3000000000e-01 0.0000000000e+00 0.0000000000e+00
1.4000000000e-01 0.0000000000e+00 0.0000000000e+00
1.5000000000e-01 0.0000000000e+00 0.0000000000e+00
1.6000000000e-01 0.0000000000e+00 0.0000000000e+00
1.7000000000e-01 0.0000000000e+00 0.0000000000e+00
1.8000000000e-01 0.0000000000e+00 0.0000000000e+00
1.9000000000e-01 0.0000000000e+00 0.0000000000e+00
2.0000000000e-01 0.0000000000e+00 0.0000000000e+00
2.1000000000e-01 0.0000000000e+00 0.0000000000e+00
2.2000000000e-01 0.0000000000e+00 0.0000000000e+00
2.3000000000e-01 0.0000000000e+00 0.0000000000e+00
2.4000000000e-01 0.0000000000e+00 0.0000000000e+00
2.5000000000e-01 0.0000000000e+00 0.0000000000e+00
2.6000000000e-01 0.0000000000e+00 0.0000000000e+00
2.7000000000e-01 0.0000000000e+00 0.0000000000e+00
2.8000000000e-01 0.0000000000e+00 0.0000000000e+00
2.9000000000e-01 0.0000000000e+00 0.0000000000e+00
3.0000000000e-01 0.0000000000e+00 0.0000000000e+00
3.1000000000e-01 0.0000000000e+00 0.0000000000e+00
3.2000000000e-01 0.0000000000e+00 0.0000000000e+00
3.3000000000e-01 0.0000000000e+00 0.0000000000e+00
3.4000000000e-01 0.0000000000e+00 0.0000000000e+00
3.5000000000e-01 0.0000000000e+00 0.0000000000e+00
3.6000000000e-01 0.0000000000e+00 0.0000000000e+00
3.7000000000e-01 0.0000000000e+00 0.0000000000e+00
3.8000000000e-01 0.0000000000e+00 0.0000000000e+00
3.9000000000e-01 0.0000000000e+00 0.0000000000e+00
4.0000000000e-01 0.0000000000e+00 0.0000000000e+00
4.1000000000e-01 0.0000000000e+00 0.0000000000e+00
4.2000000000e-01 0.0000000000e+00 0.0000000000e+00
4.3000000000e-01 0.0000000000e+00 0.0000000000e+00
4.4000000000e-01 0.0000000000e+00 0.0000000000e+00
4.5000000000e-01 0.0000000000e+00 0.0000000000e+00
4.6000000000e-01 0.0000000000e+00 0.0000000000e+00
4.7000000000e-01 0.0000000000e+00 0.0000000000e+00
4.8000000000e-01 0.0000000000e+00 0.0000000000e+00
4.9000000000e-01 0.0000000000e+00 0.0000000000e+00
5.0000000000e-01 0.0000000000e+00 0.0000000000e+00
5.1000000000e-01 0.0000000000e+00 0.0000000000e+00
5.2000000000e-01 0.0000000000e+00 0.0000000000e+00
5.3000000000e-01 0.0000000000e+00 0.0000000000e+00
5.4000000000e-01 0.0000000000e+00 0.0000000000e+00
5.5000000000e-01 0.0000000000e+00 0.0000000000e+00
5.6000000000e-01 0.0000000000e+00 0.0000000000e+00
5.7000000000e-01 0.0000000000e+00 0.0000000000e+00
5.8000000000e-01 0.0000000000e+00 0.0000000000e+00
5.9000000000e-01 0.0000000000e+00 0.0000000000e+00
6.0000000000e-01 0.0000000000e+00 0.0000000000e+00
6.1000000000e-01 0.0000000000e+00 0.0000000000e+00
6.2000000000e-01 0.0000000000e+00 0.0000000000e+00
6.3000000000e-01 0.0000000000e+00 0.0000000000e+00
6.4000000000e-01 0.0000000000e+00 0.0000000000e+00
6.5000000000e-01 0.0000000000e+00 0.0000000000e+00
6.6000000000e-01 0.0000000000e+00 0.0000000000e+00
6.7000000000e-01 0.0000000000e+00 0.0000000000e+00
6.8000000000e-01 0.0000000000e+00 0.0000000000e+00
6.9000000000e-01 0.0000000000e+00 0.0000000000e+00
7.0000000000e-01 0.0000000000e+00 0.0000000000e+00
7.1000000000e-01 0.0000000000e+00 0.0000000000e+00
7.2000000000e-01 0.0000000000e+00 0.0000000000e+00
7.3000000000e-01 0.0000000000e+00 0.0000000000e+00
7.4000000000e-01 0.0000000000e+00 0.0000000000e+00
7.5000000000e-01 0.0000000000e+00 0.0000000000e+00
7.6000000000e-01 0.0000000000e+00 0.0000000000e+00
7.7000000000e-01 0.0000000000e+00 0.0000000000e+00
7.8000000000e-01 0.0000000000e+00 0.0000000000e+00
7.9000000000e-01 0.0000000000e+00 0.0000000000e+00
8.0000000000e-01 0.0000000000e+00 0.0000000000e+00
8.1000000000e-01 0.0000000000e+00 0.0000000000e+00
8.2000000000e-01 0.0000000000e+00 0.0000000000e+00
8.3000000000e-01 0.0000000000e+00 0.0000000000e+00
8.4000000000e-01 0.0000000000e+00 0.0000000000e+00
8.5000000000e-01 0.0000000000e+00 0.0000000000e+00
8.6000000000e-01 0.0000000000e+00 0.0000000000e+00
8.7000000000e-01 0.0000000000e+00 0.0000000000e+00
8.8000000000e-01 0.0000000000e+00 0.0000000000e+00
8.9000000000e-01 0.0000000000e+00 0.0000000000e+00
9.0000000000e-01 0.0000000000e+00 0.0000000000e+00
9.1000000000e-01 0.0000000000e+00 0.0000000000e+00
9.2000000000e-01 0.0000000000e+00 0.0000000000e+00
9.3000000000e-01 0.0000000000e+00 0.0000000000e+00
9.4000000000e-01 0.0000000000e+00 0.0000000000e+00
9.5000000000e-01 0.0000000000e+00 0.0000000000e+00
9.6000000000e-01 0.0000000000e+00 0.0000000000e+00
9.7000000000e-01 0.0000000000e+00 0.0000000000e+00
9.8000000000e-01 0.0000000000e+00 0.0000000000e+00
9.9000000000e-01 0.0000000000e+00 0.0000000000e+00
1.0000000000e+00 0.0000000000e+00 0.0000000000e+00
0.0000000000e+00 1.0000000000e-02 0.0000000000e+00
1.0000000000e-02 1.0000000000e-02 0.0000000000e+00
2.0000000000e-02 1.0000000000e-02 0.0000000000e+00
3.0000000000e-02 1.0000000000e-02 0.0000000000e+00
4.0000000000e-02 1.0000000000e-02 0.0000000000e+00
5.0000000000e-02 1.0000000000e-02 0.0000000000e+00
6.0000000000e-02 1.0000000000e-02 0.0000000000e+00
7.0000000000e-02 1.0000000000e-02 0.0000000000e+00
8.0000000000e-02 1.0000000000e-02 0.0000000000e+00
9.0000000000e-02 1.0000000000e-02 0.0000000000e+00
1.0000000000e-01 1.0000000000e-02 0.0000000000e+00
1.1000000000e-01 1.0000000000e-02 0.0000000000e+00
1.2000000000e-01 1.0000000000e-02 0.0000000000e+00
1.3000000000e-01 1.0000000000e-02 0.0000000000e+00
1.4000000000e-01 1.0000000000e-02 0.0000000000e+00
1.5000000000e-01 1.0000000000e-02 0.0000000000e+00
1.6000000000e-01 1.0000000000e-02 0.0000000000e+00
1.7000000000e-01 1.0000000000e-02 0.0000000000e+00
1.8000000000e-01 1.0000000000e-02 0.0000000000e+00
1.9000000000e-01 1.0000000000e-02 0.0000000000e+00
2.0000000000e-01 1.0000000000e-02 0.0000000000e+00
2.1000000000e-01 1.0000000000e-02 0.0000000000e+00
2.2000000000e-01 1.0000000000e-02 0.0000000000e+00
2.3000000000e-01 1.0000000000e-02 0.0000000000e+00
2.4000000000e-01 1.0000000000e-02 0.0000000000e+00
2.5000000000e-01 1.0000000000e-02 0.0000000000e+00
2.6000000000e-01 1.0000000000e-02 0.0000000000e+00
2.7000000000e-01 1.0000000000e-02 0.0000000000e+00
2.8000000000e-01 1.0000000000e-02 0.0000000000e+00
2.9000000000e-01 1.0000000000e-02 0.0000000000e+00
3.0000000000e-01 1.0000000000e-02 0.0000000000e+00
3.1000000000e-01 1.0000000000e-02 0.0000000000e+00
3.2000000000e-01 1.0000000000e-02 0.0000000000e+00
3.3000000000e-01 1.0000000000e-02 0.0000000000e+00
3.4000000000e-01 1.0000000000e-02 0.0000000000e+00
3.5000000000e-01 1.0000000000e-02 0.0000000000e+00
3.6000000000e-01 1.0000000000e-02 0.0000000000e+00
3.7000000000e-01 1.0000000000e-02 0.0000000000e+00
3.8000000000e-01 1.0000000000e-02 0.0000000000e+00
3.9000000000e-01 1.0000000000e-02 0.0000000000e+00
4.0000000000e-01 1.0000000000e-02 0.0000000000e+00
4.1000000000e-01 1.0000000000e-02 0.0000000000e+00
4.2000000000e-01 1.0000000000e-02 0.0000000000e+00
4.3000000000e-01 1.0000000000e-02 0.0000000000e+00
4.4000000000e-01 1.0000000000e-02 0.0000000000e+00
4.5000000000e-01 1.0000000000e-02 0.0000000000e+00
4.6000000000e-01 1.0000000000e-02 0.0000000000e+00
4.7000000000e-01 1.0000000000e-02 0.0000000000e+00
4.8000000000e-01 1.0000000000e-02 0.0000000000e+00
4.9000000000e-01 1.0000000000e-02 0.0000000000e+00
5.0000000000e-01 1.0000000000e-02 0.0000000000e+00
5.1000000000e-01 1.0000000000e-02 0.0000000000e+00
5.2000000000e-01 1.0000000000e-02 0.0000000000e+00
5.3000000000e-01 1.0000000000e-02 0.0000000000e+00
5.4000000000e-01 1.0000000000e-02 0.0000000000e+00
5.5000000000e-01 1.0000000000e-02 0.0000000000e+00
5.6000000000e-01 1.0000000000e-02 0.0000000000e+00
5.7000000000e-01 1.0000000000e-02 0.0000000000e+00
5.8000000000e-01 1.0000000000e-02 0.0000000000e+00
5.9000000000e-01 1.0000000000e-02 0.0000000000e+00
6.0000000000e-01 1.0000000000e-02 0.0000000000e+00
6.1000000000e-01 1.0000000000e-02 0.0000000000e+00
6.2000000000e-01 1.0000000000e-02 0.0000000000e+00
6.3000000000e-01 1.0000000000e-02 0.0000000000e+00
6.4000000000e-01 1.0000000000e-02 0.0000000000e+00
6.5000000000e-01 1.0000000000e-02 0.0000000000e+00
6.6000000000e-01 1.0000000000e-02 0.0000000000e+00
6.7000000000e-01 1.0000000000e-02 0.0000000000e+00
6.8000000000e-01 1.0000000000e-02 0.0000000000e+00
6.9000000000e-01 1.0000000000e-02 0.0000000000e+00
7.0000000000e-01 1.0000000000e-02 0.0000000000e+00
7.1000000000e-01 1.0000000000e-02 0.0000000000e+00
7.2000000000e-01 1.0000000000e-02 0.0000000000e+00
7.3000000000e-01 1.0000000000e-02 0.0000000000e+00
7.4000000000e-01 1.0000000000e-02 0.0000000000e+00
7.5000000000e-01 1.0000000000e-02 0.0000000000e+00
7.6000000000e-01 1.0000000000e-02 0.0000000000e+00
7.7000000000e-01 1.0000000000e-02 0.0000000000e+00
7.8000000000e-01 1.0000000000e-02 0.0000000000e+00
7.9000000000e-01 1.0000000000e-02 0.0000000000e+00
8.0000000000e-01 1.0000000000e-02 0.0000000000e+00
8.1000000000e-01 1.0000000000e-02 0.0000000000e+00
8.2000000000e-01 1.0000000000e-02 0.0000000000e+00
8.3000000000e-01 1.0000000000e-02 0.0000000000e+00
8.4000000000e-01 1.0000000000e-02 0.0000000000e+00
8.5000000000e-01 1.0000000000e-02 0.0000000000e+00
8.6000000000e-01 1.0000000000e-02 0.0000000000e+00
8.7000000000e-01 1.0000000000e-02 0.0000000000e+00
8.8000000000e-01 1.0000000000e-02 0.0000000000e+00
8.9000000000e-01 1.0000000000e-02 0.0000000000e+00
9.0000000000e-01 1.0000000000e-02 0.0000000000e+00
9.1000000000e-01 1.0000000000e-02 0.0000000000e+00
9.2000000000e-01 1.0000000000e-02 0.0000000000e+00
[...]
CELL_DATA 10000

SCALARS massDensity float
LOOKUP_TABLE default
1.1838046190e+00
1.1843532022e+00
1.1851180040e+00
1.1862262479e+00
1.1876106429e+00
1.1891929464e+00
1.1908903873e+00
1.1926227816e+00
1.1943178149e+00
1.1959158937e+00
1.1973723428e+00
1.1986586677e+00
1.1997613953e+00
1.2006803693e+00
1.2014256162e+00
1.2020144582e+00
1.2024682514e+00
1.2028099548e+00
1.2030619411e+00
1.2032447496e+00
1.2033761979e+00
1.2034711917e+00
1.2035417370e+00
1.2035973149e+00
1.2036452755e+00
1.2036913284e+00
1.2037399609e+00
1.2037948069e+00
1.2038589384e+00
1.2039350386e+00
1.2040255305e+00
1.2041325387e+00
1.2042578385e+00
1.2044025873e+00
1.2045670749e+00
1.2047502387e+00
1.2049493082e+00
1.2051593035e+00
1.2053729068e+00
1.2055803962e+00
1.2057702565e+00
1.2059299700e+00
1.2060475677e+00
1.2061130690e+00
1.2061203188e+00
1.2060679877e+00
1.2059603959e+00
1.2058068841e+00
1.2056208927e+00
1.2054177648e+00
1.2052129011e+00
1.2050195100e+00
1.2048474821e+00
1.2047025435e+00
1.2045866004e+00
1.2044983170e+00
1.2044342737e+00
1.2043899497e+00
1.2043606773e+00
1.2043422154e+00
1.2043310977e+00
1.2043247028e+00
1.2043211906e+00
1.2043193488e+00
1.2043184269e+00
1.2043179867e+00
1.2043177862e+00
1.2043176992e+00
1.2043176633e+00
1.2043176491e+00
1.2043176438e+00
1.2043176419e+00
1.2043176413e+00
1.2043176411e+00
1.2043176410e+00
1.2043176410e+00
1.2043176410e+00
1.2043176410e+00
1.2043176410e+00
1.2043176410e+00
1.2043176410e+00
1.2043176410e+00
1.2043176410e+00
1.2043176410e+00
1.2043176410e+00
1.2043176410e+00
1.2043176410e+00
1.2043176410e+00
1.2043176410e+00
1.2043176410e+00
1.2043176410e+00
1.2043176410e+00
1.2043176410e+00
1.2043176410e+00
1.2043176410e+00
1.2043176410e+00
1.2043176410e+00
1.2043176410e+00
1.2043176410e+00
1.2043176410e+00
1.1843532022e+00
1.1849247904e+00
1.1856896490e+00
1.1867849619e+00
1.1881473624e+00
1.1897012705e+00
1.1913667330e+00
1.1930652763e+00
1.1947266019e+00
1.1962921304e+00
1.1977184653e+00
1.1989775151e+00
1.2000563999e+00
1.2009548619e+00
1.2016829783e+00
1.2022576316e+00
1.2026998839e+00
1.2030320955e+00
1.2032761837e+00
1.2034520603e+00
1.2035770367e+00
1.2036654152e+00
1.2037286784e+00
1.2037757149e+00
1.2038133070e+00
1.2038465385e+00
1.2038792473e+00
1.2039143790e+00
1.2039542805e+00
1.2040009399e+00
1.2040561179e+00
1.2041214827e+00
1.2041985902e+00
1.2042888955e+00
1.2043935365e+00
1.2045131610e+00
1.2046474711e+00
1.2047948877e+00
1.2049520013e+00
1.2051133792e+00
1.2052713813e+00
1.2054166564e+00
1.2055387907e+00
1.2056277437e+00
1.2056751347e+00
1.2056759706e+00
1.2056294522e+00
1.2055397162e+00
1.2054150342e+00
1.2052669747e+00
1.2051082404e+00
1.2049511874e+00
1.2048058514e+00
1.2046792977e+00
1.2045750305e+00
1.2044935851e+00
1.2044330907e+00
1.2043903411e+00
1.2043615477e+00
1.2043430657e+00
1.2043317474e+00
1.2043251375e+00
1.2043214540e+00
1.2043194963e+00
1.2043185040e+00
1.2043180245e+00
1.2043178037e+00
1.2043177068e+00
1.2043176664e+00
1.2043176503e+00
1.2043176443e+00
1.2043176421e+00
1.2043176413e+00
1.2043176411e+00
1.2043176410e+00
1.2043176410e+00
1.2043176410e+00
1.2043176410e+00
1.2043176410e+00
1.2043176410e+00
1.2043176410e+00
1.2043176410e+00
1.2043176410e+00
1.2043176410e+00
1.2043176410e+00
1.2043176410e+00
1.2043176410e+00
1.2043176410e+00
1.2043176410e+00
1.2043176410e+00
1.2043176410e+00
1.2043176410e+00
1.2043176410e+00
1.2043176410e+00
1.2043176410e+00
1.2043176410e+00
1.2043176410e+00
1.2043176410e+00
1.2043176410e+00
1.2043176410e+00
1.1851180040e+00
1.1856896490e+00
1.1864302758e+00
1.1874858886e+00
1.1887959846e+00
1.1902890176e+00
1.1918880923e+00
1.1935186030e+00
1.1951127276e+00
1.1966148021e+00
1.1979828430e+00
1.1991903454e+00
1.2002247007e+00
1.2010860148e+00
1.2017837834e+00
1.2023344531e+00
1.2027581008e+00
1.2030763289e+00
1.2033100510e+00
1.2034784382e+00
1.2035979910e+00
1.2036824363e+00
1.2037426822e+00
1.2037872122e+00
1.2038224160e+00
1.2038530767e+00
1.2038827390e+00
1.2039140844e+00
1.2039492133e+00
1.2039898733e+00
1.2040376579e+00
1.2040941181e+00
1.2041608885e+00
1.2042396610e+00
1.2043321607e+00
1.2044398651e+00
1.2045636993e+00
1.2047034325e+00
1.2048571539e+00
1.2050206279e+00
1.2051870615e+00
1.2053471051e+00
1.2054896282e+00
1.2056028428e+00
1.2056761564e+00
1.2057018059e+00
1.2056766441e+00
1.2056026908e+00
1.2054873572e+00
1.2053419369e+00
1.2051801778e+00
1.2050156850e+00
1.2048604126e+00
1.2047229147e+00
1.2046081718e+00
1.2045174975e+00
1.2044495442e+00
1.2044011159e+00
1.2043682861e+00
1.2043470802e+00
1.2043340321e+00
1.2043263764e+00
1.2043220954e+00
1.2043198127e+00
1.2043186528e+00
1.2043180911e+00
1.2043178321e+00
1.2043177183e+00
1.2043176708e+00
1.2043176519e+00
1.2043176448e+00
1.2043176423e+00
1.2043176414e+00
1.2043176411e+00
1.2043176410e+00
1.2043176410e+00
1.2043176410e+00
1.2043176410e+00
1.2043176410e+00
1.2043176410e+00
1.2043176410e+00
1.2043176410e+00
1.2043176410e+00
1.2043176410e+00
1.2043176410e+00
1.2043176410e+00
1.2043176410e+00
1.2043176410e+00
1.2043176410e+00
1.2043176410e+00
1.2043176410e+00
1.2043176410e+00
1.2043176410e+00
1.2043176410e+00
1.2043176410e+00
1.2043176410e+00
1.2043176410e+00
1.2043176410e+00
1.2043176410e+00
1.2043176410e+00
1.1862262479e+00
1.1867849619e+00
1.1874858886e+00
1.1884815007e+00
1.1897155432e+00
1.1911203675e+00
1.1926244581e+00
1.1941572021e+00
1.1956555571e+00
1.1970667398e+00
1.1983518991e+00
1.1994857638e+00
1.2004569703e+00
1.2012653647e+00
1.2019202220e+00
1.2024368174e+00
1.2028342423e+00
1.2031326554e+00
1.2033518312e+00
1.2035096645e+00
1.2036217083e+00
1.2037007532e+00
1.2037570437e+00
1.2037984466e+00
1.2038309155e+00
1.2038588299e+00
1.2038854234e+00
1.2039130848e+00
1.2039436573e+00
1.2039786700e+00
1.2040195352e+00
1.2040677421e+00
1.2041249744e+00
1.2041932282e+00
1.2042747462e+00
1.2043718779e+00
1.2044866287e+00
1.2046200951e+00
1.2047716350e+00
1.2049381335e+00
1.2051133752e+00
1.2052879793e+00
1.2054498932e+00
1.2055857500e+00
1.2056826713e+00
1.2057305800e+00
1.2057239635e+00
1.2056633685e+00
1.2055552014e+00
1.2054110889e+00
1.2052454399e+00
1.2050735133e+00
1.2049086439e+00
1.2047610740e+00
1.2046367714e+00
1.2045379220e+00
1.2044634007e+00
1.2044100913e+00
1.2043738153e+00
1.2043503342e+00
1.2043358539e+00
1.2043273503e+00
1.2043225906e+00
1.2043200528e+00
1.2043187635e+00
1.2043181396e+00
1.2043178523e+00
1.2043177263e+00
1.2043176738e+00
1.2043176530e+00
1.2043176452e+00
1.2043176424e+00
1.2043176414e+00
1.2043176411e+00
1.2043176410e+00
1.2043176410e+00
1.2043176410e+00
1.2043176410e+00
1.2043176410e+00
1.2043176410e+00
1.2043176410e+00
1.2043176410e+00
1.2043176410e+00
1.2043176410e+00
1.2043176410e+00
1.2043176410e+00
1.2043176410e+00
1.2043176410e+00
1.2043176410e+00
1.2043176410e+00
1.2043176410e+00
1.2043176410e+00
1.2043176410e+00
1.2043176410e+00
1.2043176410e+00
1.2043176410e+00
1.2043176410e+00
1.2043176410e+00
1.2043176410e+00
1.2043176410e+00
1.1876106429e+00
1.1881473624e+00
1.1887959846e+00
1.1897155432e+00
1.1908535837e+00
1.1921484743e+00
1.1935337462e+00
1.1949451603e+00
1.1963240913e+00
1.1976226805e+00
1.1988046887e+00
1.1998474711e+00
1.2007402237e+00
1.2014832703e+00
1.2020849066e+00
1.2025595037e+00
1.2029244553e+00
1.2031984984e+00
1.2033996918e+00
1.2035445954e+00
1.2036474054e+00
1.2037199216e+00
1.2037714678e+00
1.2038092664e+00
1.2038386924e+00
1.2038637157e+00
1.2038871957e+00
1.2039112310e+00
1.2039374014e+00
1.2039670212e+00
1.2040013580e+00
1.2040418406e+00
1.2040902670e+00
1.2041489224e+00
1.2042206291e+00
1.2043085431e+00
1.2044157521e+00
1.2045445241e+00
1.2046953868e+00
1.2048661041e+00
1.2050508817e+00
1.2052400706e+00
1.2054206450e+00
1.2055775480e+00
1.2056958562e+00
1.2057632047e+00
1.2057722814e+00
1.2057221531e+00
1.2056189267e+00
1.2054743088e+00
1.2053039600e+00
1.2051242626e+00
1.2049502875e+00
1.2047933499e+00
1.2046605795e+00
1.2045545634e+00
1.2044744998e+00
1.2044171134e+00
1.2043780578e+00
1.2043527653e+00
1.2043371834e+00
1.2043280393e+00
1.2043229306e+00
1.2043202116e+00
1.2043188338e+00
1.2043181691e+00
1.2043178639e+00
1.2043177306e+00
1.2043176753e+00
1.2043176535e+00
1.2043176453e+00
1.2043176424e+00
1.2043176414e+00
1.2043176411e+00
1.2043176410e+00
1.2043176410e+00
1.2043176410e+00
1.2043176410e+00
1.2043176410e+00
1.2043176410e+00
1.2043176410e+00
1.2043176410e+00
1.2043176410e+00
1.2043176410e+00
1.2043176410e+00
1.2043176410e+00
1.2043176410e+00
1.2043176410e+00
1.2043176410e+00
1.2043176410e+00
1.2043176410e+00
1.2043176410e+00
1.2043176410e+00
1.2043176410e+00
1.2043176410e+00
1.2043176410e+00
1.2043176410e+00
1.2043176410e+00
1.2043176410e+00
1.2043176410e+00
1.1891929464e+00
1.1897012705e+00
1.1902890176e+00
1.1911203675e+00
1.1921484743e+00
1.1933170388e+00
1.1945668566e+00
1.1958393172e+00
1.1970823533e+00
1.1982522358e+00
1.1993170124e+00
1.2002558324e+00
1.2010595304e+00
1.2017280898e+00
1.2022693941e+00
1.2026961774e+00
1.2030243710e+00
1.2032706977e+00
1.2034515727e+00
1.2035817895e+00
1.2036742047e+00
1.2037393425e+00
1.2037856163e+00
1.2038194336e+00
1.2038456061e+00
1.2038676034e+00
1.2038879290e+00
1.2039083574e+00
1.2039302233e+00
1.2039546388e+00
1.2039827479e+00
1.2040159706e+00
1.2040562402e+00
1.2041062011e+00
1.2041692509e+00
1.2042493849e+00
1.2043506956e+00
1.2044765444e+00
1.2046284453e+00
1.2048048341e+00
1.2050000994e+00
1.2052041062e+00
1.2054026983e+00
1.2055791307e+00
1.2057164530e+00
1.2058003973e+00
1.2058219451e+00
1.2057793777e+00
1.2056784136e+00
1.2055315734e+00
1.2053553324e+00
1.2051677331e+00
1.2049849068e+00
1.2048195398e+00
1.2046792863e+00
1.2045672930e+00
1.2044826799e+00
1.2044221238e+00
1.2043809504e+00
1.2043543541e+00
1.2043380026e+00
1.2043284390e+00
1.2043231122e+00
1.2043202887e+00
1.2043188637e+00
1.2043181795e+00
1.2043178670e+00
1.2043177313e+00
1.2043176753e+00
1.2043176534e+00
1.2043176452e+00
1.2043176424e+00
1.2043176414e+00
1.2043176411e+00
1.2043176410e+00
1.2043176410e+00
1.2043176410e+00
1.2043176410e+00
1.2043176410e+00
1.2043176410e+00
1.2043176410e+00
1.2043176410e+00
1.2043176410e+00
1.2043176410e+00
1.2043176410e+00
1.2043176410e+00
1.2043176410e+00
1.2043176410e+00
1.2043176410e+00
1.2043176410e+00
1.2043176410e+00
1.2043176410e+00
1.2043176410e+00
1.2043176410e+00
1.2043176410e+00
1.2043176410e+00
1.2043176410e+00
1.2043176410e+00
1.2043176410e+00
1.2043176410e+00
1.1908903873e+00
1.1913667330e+00
1.1918880923e+00
1.1926244581e+00
1.1935337462e+00
1.1945668566e+00
1.1956707751e+00
1.1967945211e+00
1.1978914643e+00
1.1989237644e+00
1.1998626933e+00
1.2006905003e+00
1.2013987188e+00
1.2019878271e+00
1.2024645190e+00
1.2028403619e+00
1.2031292244e+00
1.2033460584e+00
1.2035052034e+00
1.2036198134e+00
1.2037011150e+00
1.2037584322e+00
1.2037990851e+00
1.2038287187e+00
1.2038514739e+00
1.2038703605e+00
1.2038874714e+00
1.2039042909e+00
1.2039218979e+00
1.2039412375e+00
1.2039633620e+00
1.2039897263e+00
1.2040224647e+00
1.2040646208e+00
1.2041202235e+00
1.2041940996e+00
1.2042913085e+00
1.2044161939e+00
1.2045710540e+00
1.2047547872e+00
1.2049616492e+00
1.2051808285e+00
1.2053968258e+00
1.2055911858e+00
1.2057450779e+00
1.2058424735e+00
1.2058732236e+00
1.2058348945e+00
1.2057336132e+00
1.2055824379e+00
1.2053993659e+00
1.2052034485e+00
1.2050123332e+00
1.2048393106e+00
1.2046928083e+00
1.2045759474e+00
1.2044879235e+00
1.2044250693e+00
1.2043825015e+00
1.2043550936e+00
1.2043383217e+00
1.2043285531e+00
1.2043231411e+00
1.2043202871e+00
1.2043188554e+00
1.2043181723e+00
1.2043178623e+00
1.2043177287e+00
1.2043176741e+00
1.2043176528e+00
1.2043176450e+00
1.2043176423e+00
1.2043176414e+00
1.2043176411e+00
1.2043176410e+00
1.2043176410e+00
1.2043176410e+00
1.2043176410e+00
1.2043176410e+00
1.2043176410e+00
1.2043176410e+00
1.2043176410e+00
1.2043176410e+00
1.2043176410e+00
1.2043176410e+00
1.2043176410e+00
1.2043176410e+00
1.2043176410e+00
1.2043176410e+00
1.2043176410e+00
1.2043176410e+00
1.2043176410e+00
1.2043176410e+00
1.2043176410e+00
1.2043176410e+00
1.2043176410e+00
1.2043176410e+00
1.2043176410e+00
1.2043176410e+00
1.2043176410e+00
1.1926227816e+00
1.1930652763e+00
1.1935186030e+00
1.1941572021e+00
1.1949451603e+00
1.1958393172e+00
1.1967945211e+00
1.1977660076e+00
1.1987142175e+00
1.1996058605e+00
1.2004167988e+00
1.2011312534e+00
1.2017424648e+00
1.2022505373e+00
1.2026616518e+00
1.2029855846e+00
1.2032345698e+00
1.2034213633e+00
1.2035584944e+00
1.2036571993e+00
1.2037272420e+00
1.2037765688e+00
1.2038115156e+00
1.2038368540e+00
1.2038561279e+00
1.2038718209e+00
1.2038856690e+00
1.2038988376e+00
1.2039121975e+00
1.2039265386e+00
1.2039428790e+00
1.2039627611e+00
1.2039885892e+00
1.2040238725e+00
1.2040733194e+00
1.2041425905e+00
1.2042376745e+00
1.2043637348e+00
1.2045236965e+00
1.2047165720e+00
1.2049362836e+00
1.2051709710e+00
1.2054037188e+00
1.2056142599e+00
1.2057820269e+00
1.2058896037e+00
1.2059259068e+00
1.2058885490e+00
1.2057839835e+00
1.2056266378e+00
1.2054354895e+00
1.2052312261e+00
1.2050321793e+00
1.2048526171e+00
1.2047009748e+00
1.2045805673e+00
1.2044901967e+00
1.2044260077e+00
1.2043827267e+00
1.2043550239e+00
1.2043381596e+00
1.2043284009e+00
1.2043230275e+00
1.2043202140e+00
1.2043188128e+00
1.2043181494e+00
1.2043178509e+00
1.2043177234e+00
1.2043176717e+00
1.2043176519e+00
1.2043176446e+00
1.2043176422e+00
1.2043176413e+00
1.2043176411e+00
1.2043176410e+00
1.2043176410e+00
1.2043176410e+00
1.2043176410e+00
1.2043176410e+00
1.2043176410e+00
1.2043176410e+00
1.2043176410e+00
1.2043176410e+00
1.2043176410e+00
1.2043176410e+00
1.2043176410e+00
1.2043176410e+00
1.2043176410e+00
1.2043176410e+00
1.2043176410e+00
1.2043176410e+00
1.2043176410e+00
1.2043176410e+00
1.2043176410e+00
1.2043176410e+00
1.2043176410e+00
1.2043176410e+00
1.2043176410e+00
1.2043176410e+00
1.2043176410e+00
1.1943178149e+00
1.1947266019e+00
1.1951127276e+00
1.1956555571e+00
1.1963240913e+00
1.1970823533e+00
1.1978914643e+00
1.1987142175e+00
1.1995165308e+00
1.2002709136e+00
1.2009564605e+00
1.2015604088e+00
1.2020766900e+00
1.2025058401e+00
1.2028528418e+00
1.2031262677e+00
1.2033362880e+00
1.2034938740e+00
1.2036094856e+00
1.2036927203e+00
1.2037517216e+00
1.2037932429e+00
1.2038225353e+00
1.2038436175e+00
1.2038593692e+00
1.2038718293e+00
1.2038823367e+00
1.2038918014e+00
1.2039008799e+00
1.2039102745e+00
1.2039210048e+00
1.2039347867e+00
1.2039543604e+00
1.2039837884e+00
1.2040284921e+00
1.2040949947e+00
1.2041901046e+00
1.2043197118e+00
1.2044870372e+00
1.2046910219e+00
1.2049247882e+00
1.2051753090e+00
1.2054239318e+00
1.2056486866e+00
1.2058273938e+00
1.2059415232e+00
1.2059796875e+00
1.2059396590e+00
1.2058290988e+00
1.2056634409e+00
1.2054634277e+00
1.2052505686e+00
1.2050444012e+00
1.2048592563e+00
1.2047038885e+00
1.2045811403e+00
1.2044896290e+00
1.2044249910e+00
1.2043817172e+00
1.2043541912e+00
1.2043375621e+00
1.2043280072e+00
1.2043227892e+00
1.2043200789e+00
1.2043187412e+00
1.2043181137e+00
1.2043178341e+00
1.2043177160e+00
1.2043176686e+00
1.2043176507e+00
1.2043176442e+00
1.2043176420e+00
1.2043176413e+00
1.2043176411e+00
1.2043176410e+00
1.2043176410e+00
1.2043176410e+00
1.2043176410e+00
1.2043176410e+00
1.2043176410e+00
1.2043176410e+00
1.2043176410e+00
1.2043176410e+00
1.2043176410e+00
1.2043176410e+00
1.2043176410e+00
1.2043176410e+00
1.2043176410e+00
1.2043176410e+00
1.2043176410e+00
1.2043176410e+00
1.2043176410e+00
1.2043176410e+00
1.2043176410e+00
1.2043176410e+00
1.2043176410e+00
1.2043176410e+00
1.2043176410e+00
1.2043176410e+00
1.2043176410e+00
1.1959158937e+00
1.1962921304e+00
1.1966148021e+00
1.1970667398e+00
1.1976226805e+00
1.1982522358e+00
1.1989237644e+00
1.1996058605e+00
1.2002709136e+00
1.2008956547e+00
1.2014633474e+00
1.2019630428e+00
1.2023901876e+00
1.2027449557e+00
1.2030318155e+00
1.2032576727e+00
1.2034311686e+00
1.2035612418e+00
1.2036566765e+00
1.2037252994e+00
1.2037739069e+00
1.2038079796e+00
1.2038318647e+00
1.2038487702e+00
1.2038610301e+00
1.2038701954e+00
1.2038772924e+00
1.2038829559e+00
1.2038877069e+00
1.2038921777e+00
1.2038974861e+00
1.2039055787e+00
1.2039196447e+00
1.2039443528e+00
1.2039859194e+00
1.2040516727e+00
1.2041492153e+00
1.2042848806e+00
1.2044620357e+00
1.2046790506e+00
1.2049281002e+00
1.2051945020e+00
1.2054579210e+00
1.2056945546e+00
1.2058809115e+00
1.2059977749e+00
1.2060337348e+00
1.2059875681e+00
1.2058680041e+00
1.2056923819e+00
1.2054824992e+00
1.2052613641e+00
1.2050487157e+00
1.2048593741e+00
1.2047015471e+00
1.2045778839e+00
1.2044863197e+00
1.2044221863e+00
1.2043795623e+00
1.2043526864e+00
1.2043365791e+00
1.2043274095e+00
1.2043224463e+00
1.2043198941e+00
1.2043186470e+00
1.2043180683e+00
1.2043178135e+00
1.2043177071e+00
1.2043176650e+00
1.2043176493e+00
1.2043176437e+00
1.2043176418e+00
1.2043176412e+00
1.2043176411e+00
1.2043176410e+00
1.2043176410e+00
1.2043176410e+00
1.2043176410e+00
1.2043176410e+00
1.2043176410e+00
1.2043176410e+00
1.2043176410e+00
1.2043176410e+00
1.2043176410e+00
1.2043176410e+00
1.2043176410e+00
1.2043176410e+00
1.2043176410e+00
1.2043176410e+00
1.2043176410e+00
1.2043176410e+00
1.2043176410e+00
1.2043176410e+00
1.2043176410e+00
1.2043176410e+00
1.2043176410e+00
1.2043176410e+00
1.2043176410e+00
1.2043176410e+00
1.2043176410e+00
1.1973723428e+00
1.1977184653e+00
1.1979828430e+00
1.1983518991e+00
1.1988046887e+00
1.1993170124e+00
1.1998626933e+00
1.2004167988e+00
1.2009564605e+00
1.2014633474e+00
1.2019235019e+00
1.2023285155e+00
1.2026744107e+00
1.2029616907e+00
1.2031937729e+00
1.2033765042e+00
1.2035167365e+00
1.2036218655e+00
1.2036988875e+00
1.2037542208e+00
1.2037932606e+00
1.2038204643e+00
1.2038392349e+00
1.2038521340e+00
1.2038609120e+00
1.2038667431e+00
1.2038703144e+00
1.2038720776e+00
1.2038724204e+00
1.2038720099e+00
1.2038721055e+00
1.2038750135e+00
1.2038844327e+00
1.2039057597e+00
1.2039459917e+00
1.2040132992e+00
1.2041158568e+00
1.2042603417e+00
1.2044497806e+00
1.2046818150e+00
1.2049470765e+00
1.2052292216e+00
1.2055058739e+00
1.2057516823e+00
1.2059420278e+00
1.2060574121e+00
1.2060871297e+00
1.2060310590e+00
1.2058999478e+00
1.2057125136e+00
1.2054924272e+00
1.2052631781e+00
1.2050452634e+00
1.2048529477e+00
1.2046942584e+00
1.2045709488e+00
1.2044805376e+00
1.2044177432e+00
1.2043764217e+00
1.2043505988e+00
1.2043352818e+00
1.2043266469e+00
1.2043220240e+00
1.2043196726e+00
1.2043185371e+00
1.2043180168e+00
1.2043177906e+00
1.2043176975e+00
1.2043176612e+00
1.2043176478e+00
1.2043176432e+00
1.2043176417e+00
1.2043176412e+00
1.2043176411e+00
1.2043176410e+00
1.2043176410e+00
1.2043176410e+00
1.2043176410e+00
1.2043176410e+00
1.2043176410e+00
1.2043176410e+00
1.2043176410e+00
1.2043176410e+00
1.2043176410e+00
1.2043176410e+00
1.2043176410e+00
1.2043176410e+00
1.2043176410e+00
1.2043176410e+00
1.2043176410e+00
1.2043176410e+00
1.2043176410e+00
1.2043176410e+00
1.2043176410e+00
1.2043176410e+00
1.2043176410e+00
1.2043176410e+00
1.2043176410e+00
1.2043176410e+00
1.2043176410e+00
1.1986586677e+00
1.1989775151e+00
1.1991903454e+00
1.1994857638e+00
1.1998474711e+00
1.2002558324e+00
1.2006905003e+00
1.2011312534e+00
1.2015604088e+00
1.2019630428e+00
1.2023285155e+00
1.2026498631e+00
1.2029242908e+00
1.2031519854e+00
1.2033359245e+00
1.2034805903e+00
1.2035915917e+00
1.2036746710e+00
1.2037354729e+00
1.2037789757e+00
1.2038094902e+00
1.2038304327e+00
1.2038444765e+00
1.2038535109e+00
1.2038588459e+00
1.2038612519e+00
1.2038611857e+00
1.2038589071e+00
1.2038547828e+00
1.2038495438e+00
1.2038447297e+00
1.2038430657e+00
1.2038489097e+00
1.2038684036e+00
1.2039094164e+00
1.2039808010e+00
1.2040912606e+00
1.2042473737e+00
1.2044516787e+00
1.2047004399e+00
1.2049826852e+00
1.2052798663e+00
1.2055678004e+00
1.2058195193e+00
1.2060097539e+00
1.2061192706e+00
1.2061383883e+00
1.2060690191e+00
1.2059236434e+00
1.2057232822e+00
1.2054925367e+00
1.2052560662e+00
1.2050339467e+00
1.2048403548e+00
1.2046822150e+00
1.2045607251e+00
1.2044725075e+00
1.2044119182e+00
1.2043724424e+00
1.2043480531e+00
1.2043337394e+00
1.2043257661e+00
1.2043215472e+00
1.2043194284e+00
1.2043184187e+00
1.2043179624e+00
1.2043177670e+00
1.2043176878e+00
1.2043176574e+00
1.2043176464e+00
1.2043176427e+00
1.2043176415e+00