# vtk DataFile Version 2.0
Blank
ASCII
DATASET STRUCTURED_GRID
DIMENSIONS 101 101 2
POINTS 20402 float
0.0000000000e+00 0.0000000000e+00 0.0000000000e+00
1.0000000000e-02 0.0000000000e+00 0.0000000000e+00
2.0000000000e-02 0.0000000000e+00 0.0000000000e+00
3.0000000000e-02 0.0000000000e+00 0.0000000000e+00
4.0000000000e-02 0.0000000000e+00 0.0000000000e+00
5.0000000000e-02 0.0000000000e+00 0.0000000000e+00
6.0000000000e-02 0.0000000000e+00 0.0000000000e+00
7.0000000000e-02 0.0000000000e+00 0.0000000000e+00
8.0000000000e-02 0.0000000000e+00 0.0000000000e+00
9.0000000000e-02 0.0000000000e+00 0.0000000000e+00
1.0000000000e-01 0.0000000000e+00 0.0000000000e+00
1.1000000000e-01 0.0000000000e+00 0.0000000000e+00
1.2000000000e-01 0.0000000000e+00 0.0000000000e+00
1.3000000000e-01 0.0000000000e+00 0.0000000000e+00
1.4000000000e-01 0.0000000000e+00 0.0000000000e+00
1.5000000000e-01 0.0000000000e+00 0.0000000000e+00
1.6000000000e-01 0.0000000000e+00 0.0000000000e+00
1.7000000000e-01 0.0000000000e+00 0.0000000000e+00
1.8000000000e-01 0.0000000000e+00 0.0000000000e+00
1.9000000000e-01 0.0000000000e+00 0.0000000000e+00
2.0000000000e-01 0.0000000000e+00 0.0000000000e+00
2.1000000000e-01 0.0000000000e+00 0.0000000000e+00
2.2000000000e-01 0.0000000000e+00 0.0000000000e+00
2.3000000000e-01 0.0000000000e+00 0.0000000000e+00
2.4000000000e-01 0.0000000000e+00 0.0000000000e+00
2.5000000000e-01 0.0000000000e+00 0.0000000000e+00
2.6000000000e-01 0.0000000000e+00 0.0000000000e+00
2.7000000000e-01 0.0000000000e+00 0.0000000000e+00
2.8000000000e-01 0.0000000000e+00 0.0000000000e+00
2.9000000000e-01 0.0000000000e+00 0.0000000000e+00
3.0000000000e-01 0.0000000000e+00 0.0000000000e+00
3.1000000000e-01 0.0000000000e+00 0.0000000000e+00
3.2000000000e-01 0.0000000000e+00 0.0000000000e+00
3.3000000000e-01 0.0000000000e+00 0.0000000000e+00
3.4000000000e-01 0.0000000000e+00 0.0000000000e+00
3.5000000000e-01 0.0000000000e+00 0.0000000000e+00
3.6000000000e-01 0.0000000000e+00 0.0000000000e+00
3.7000000000e-01 0.0000000000e+00 0.0000000000e+00
3.8000000000e-01 0.0000000000e+00 0.0000000000e+00
3.9000000000e-01 0.0000000000e+00 0.0000000000e+00
4.0000000000e-01 0.0000000000e+00 0.0000000000e+00
4.1000000000e-01 0.0000000000e+00 0.0000000000e+00
4.2000000000e-01 0.0000000000e+00 0.0000000000e+00
4.3000000000e-01 0.0000000000e+00 0.0000000000e+00
4.4000000000e-01 0.0000000000e+00 0.0000000000e+00
4.5000000000e-01 0.0000000000e+00 0.0000000000e+00
4.6000000000e-01 0.0000000000e+00 0.0000000000e+00
4.7000000000e-01 0.0000000000e+00 0.0000000000e+00
4.8000000000e-01 0.0000000000e+00 0.0000000000e+00
4.9000000000e-01 0.0000000000e+00 0.0000000000e+00
5.0000000000e-01 0.0000000000e+00 0.0000000000e+00
5.1000000000e-01 0.0000000000e+00 0.0000000000e+00
5.2000000000e-01 0.0000000000e+00 0.0000000000e+00
5.3000000000e-01 0.0000000000e+00 0.0000000000e+00
5.4000000000e-01 0.0000000000e+00 0.0000000000e+00
5.5000000000e-01 0.0000000000e+00 0.0000000000e+00
5.6000000000e-01 0.0000000000e+00 0.0000000000e+00
5.7000000000e-01 0.0000000000e+00 0.0000000000e+00
5.8000000000e-01 0.0000000000e+00 0.0000000000e+00
5.9000000000e-01 0.0000000000e+00 0.0000000000e+00
6.0000000000e-01 0.0000000000e+00 0.0000000000e+00
6.1000000000e-01 0.0000000000e+00 0.0000000000e+00
6.2000000000e-01 0.0000000000e+00 0.0000000000e+00
6.3000000000e-01 0.0000000000e+00 0.0000000000e+00
6.4000000000e-01 0.0000000000e+00 0.0000000000e+00
6.5000000000e-01 0.0000000000e+00 0.0000000000e+00
6.6000000000e-01 0.0000000000e+00 0.0000000000e+00
6.7000000000e-01 0.0000000000e+00 0.0000000000e+00
6.8000000000e-01 0.0000000000e+00 0.0000000000e+00
6.9000000000e-01 0.0000000000e+00 0.0000000000e+00
7.0000000000e-01 0.0000000000e+00 0.0000000000e+00
7.1000000000e-01 0.0000000000e+00 0.0000000000e+00
7.2000000000e-01 0.0000000000e+00 0.0000000000e+00
7.3000000000e-01 0.0000000000e+00 0.0000000000e+00
7.4000000000e-01 0.0000000000e+00 0.0000000000e+00
7.5000000000e-01 0.0000000000e+00 0.0000000000e+00
7.6000000000e-01 0.0000000000e+00 0.0000000000e+00
7.7000000000e-01 0.0000000000e+00 0.0000000000e+00
7.8000000000e-01 0.0000000000e+00 0.0000000000e+00
7.9000000000e-01 0.0000000000e+00 0.0000000000e+00
8.0000000000e-01 0.0000000000e+00 0.0000000000e+00
8.1000000000e-01 0.0000000000e+00 0.0000000000e+00
8.2000000000e-01 0.0000000000e+00 0.0000000000e+00
8.3000000000e-01 0.0000000000e+00 0.0000000000e+00
8.4000000000e-01 0.0000000000e+00 0.0000000000e+00
8.5000000000e-01 0.0000000000e+00 0.0000000000e+00
8.6000000000e-01 0.0000000000e+00 0.0000000000e+00
8.7000000000e-01 0.0000000000e+00 0.0000000000e+00
8.8000000000e-01 0.0000000000e+00 0.0000000000e+00
8.9000000000e-01 0.0000000000e+00 0.0000000000e+00
9.0000000000e-01 0.0000000000e+00 0.0000000000e+00
9.1000000000e-01 0.0000000000e+00 0.0000000000e+00
9.2000000000e-01 0.0000000000e+00 0.0000000000e+00
9.3000000000e-01 0.0000000000e+00 0.0000000000e+00
9.4000000000e-01 0.0000000000e+00 0.0000000000e+00
9.5000000000e-01 0.0000000000e+00 0.0000000000e+00
9.6000000000e-01 0.0000000000e+00 0.0000000000e+00
9.7000000000e-01 0.0000000000e+00 0.0000000000e+00
9.8000000000e-01 0.0000000000e+00 0.0000000000e+00
9.9000000000e-01 0.0000000000e+00 0.0000000000e+00
1.0000000000e+00 0.0000000000e+00 0.0000000000e+00
0.0000000000e+00 1.0000000000e-02 0.0000000000e+00
1.0000000000e-02 1.0000000000e-02 0.0000000000e+00
2.0000000000e-02 1.0000000000e-02 0.0000000000e+00
3.0000000000e-02 1.0000000000e-02 0.0000000000e+00
4.0000000000e-02 1.0000000000e-02 0.0000000000e+00
5.0000000000e-02 1.0000000000e-02 0.0000000000e+00
6.0000000000e-02 1.0000000000e-02 0.0000000000e+00
7.0000000000e-02 1.0000000000e-02 0.0000000000e+00
8.0000000000e-02 1.0000000000e-02 0.0000000000e+00
9.0000000000e-02 1.0000000000e-02 0.0000000000e+00
1.0000000000e-01 1.0000000000e-02 0.0000000000e+00
1.1000000000e-01 1.0000000000e-02 0.0000000000e+00
1.2000000000e-01 1.0000000000e-02 0.0000000000e+00
1.3000000000e-01 1.0000000000e-02 0.0000000000e+00
1.4000000000e-01 1.0000000000e-02 0.0000000000e+00
1.5000000000e-01 1.0000000000e-02 0.0000000000e+00
1.6000000000e-01 1.0000000000e-02 0.0000000000e+00
1.7000000000e-01 1.0000000000e-02 0.0000000000e+00
1.8000000000e-01 1.0000000000e-02 0.0000000000e+00
1.9000000000e-01 1.0000000000e-02 0.0000000000e+00
2.0000000000e-01 1.0000000000e-02 0.0000000000e+00
2.1000000000e-01 1.0000000000e-02 0.0000000000e+00
2.2000000000e-01 1.0000000000e-02 0.0000000000e+00
2.3000000000e-01 1.0000000000e-02 0.0000000000e+00
2.4000000000e-01 1.0000000000e-02 0.0000000000e+00
2.5000000000e-01 1.0000000000e-02 0.0000000000e+00
2.6000000000e-01 1.0000000000e-02 0.0000000000e+00
2.7000000000e-01 1.0000000000e-02 0.0000000000e+00
2.8000000000e-01 1.0000000000e-02 0.0000000000e+00
2.9000000000e-01 1.0000000000e-02 0.0000000000e+00
3.0000000000e-01 1.0000000000e-02 0.0000000000e+00
3.1000000000e-01 1.0000000000e-02 0.0000000000e+00
3.2000000000e-01 1.0000000000e-02 0.0000000000e+00
3.3000000000e-01 1.0000000000e-02 0.0000000000e+00
3.4000000000e-01 1.0000000000e-02 0.0000000000e+00
3.5000000000e-01 1.0000000000e-02 0.0000000000e+00
3.6000000000e-01 1.0000000000e-02 0.0000000000e+00
3.7000000000e-01 1.0000000000e-02 0.0000000000e+00
3.8000000000e-01 1.0000000000e-02 0.0000000000e+00
3.9000000000e-01 1.0000000000e-02 0.0000000000e+00
4.0000000000e-01 1.0000000000e-02 0.0000000000e+00
4.1000000000e-01 1.0000000000e-02 0.0000000000e+00
4.2000000000e-01 1.0000000000e-02 0.0000000000e+00
4.3000000000e-01 1.0000000000e-02 0.0000000000e+00
4.4000000000e-01 1.0000000000e-02 0.0000000000e+00
4.5000000000e-01 1.0000000000e-02 0.0000000000e+00
4.6000000000e-01 1.0000000000e-02 0.0000000000e+00
4.7000000000e-01 1.0000000000e-02 0.0000000000e+00
4.8000000000e-01 1.0000000000e-02 0.0000000000e+00
4.9000000000e-01 1.0000000000e-02 0.0000000000e+00
5.0000000000e-01 1.0000000000e-02 0.0000000000e+00
5.1000000000e-01 1.0000000000e-02 0.0000000000e+00
5.2000000000e-01 1.0000000000e-02 0.0000000000e+00
5.3000000000e-01 1.0000000000e-02 0.0000000000e+00
5.4000000000e-01 1.0000000000e-02 0.0000000000e+00
5.5000000000e-01 1.0000000000e-02 0.0000000000e+00
5.6000000000e-01 1.0000000000e-02 0.0000000000e+00
5.7000000000e-01 1.0000000000e-02 0.0000000000e+00
5.8000000000e-01 1.0000000000e-02 0.0000000000e+00
5.9000000000e-01 1.0000000000e-02 0.0000000000e+00
6.0000000000e-01 1.0000000000e-02 0.0000000000e+00
6.1000000000e-01 1.0000000000e-02 0.0000000000e+00
6.2000000000e-01 1.0000000000e-02 0.0000000000e+00
6.3000000000e-01 1.0000000000e-02 0.0000000000e+00
6.4000000000e-01 1.0000000000e-02 0.0000000000e+00
6.5000000000e-01 1.0000000000e-02 0.0000000000e+00
6.6000000000e-01 1.0000000000e-02 0.0000000000e+00
6.7000000000e-01 1.0000000000e-02 0.0000000000e+00
6.8000000000e-01 1.0000000000e-02 0.0000000000e+00
6.9000000000e-01 1.0000000000e-02 0.0000000000e+00
7.0000000000e-01 1.0000000000e-02 0.0000000000e+00
7.1000000000e-01 1.0000000000e-02 0.0000000000e+00
7.2000000000e-01 1.0000000000e-02 0.0000000000e+00
7.3000000000e-01 1.0000000000e-02 0.0000000000e+00
7.4000000000e-01 1.0000000000e-02 0.0000000000e+00
7.5000000000e-01 1.0000000000e-02 0.0000000000e+00
7.6000000000e-01 1.0000000000e-02 0.0000000000e+00
7.7000000000e-01 1.0000000000e-02 0.0000000000e+00
7.8000000000e-01 1.0000000000e-02 0.0000000000e+00
7.9000000000e-01 1.0000000000e-02 0.0000000000e+00
8.0000000000e-01 1.0000000000e-02 0.0000000000e+00
8.1000000000e-01 1.0000000000e-02 0.0000000000e+00
8.2000000000e-01 1.0000000000e-02 0.0000000000e+00
8.3000000000e-01 1.0000000000e-02 0.0000000000e+00
8.4000000000e-01 1.0000000000e-02 0.0000000000e+00
8.5000000000e-01 1.0000000000e-02 0.0000000000e+00
8.6000000000e-01 1.0000000000e-02 0.0000000000e+00
8.7000000000e-01 1.0000000000e-02 0.0000000000e+00
8.8000000000e-01 1.0000000000e-02 0.0000000000e+00
8.9000000000e-01 1.0000000000e-02 0.0000000000e+00
9.0000000000e-01 1.0000000000e-02 0.0000000000e+00
9.1000000000e-01 1.0000000000e-02 0.0000000000e+00
9.2000000000e-01 1.0000000000e-02 0.0000000000e+00
[...]
CELL_DATA 10000

SCALARS massDensity float
LOOKUP_TABLE default
1.1986754280e+00
1.1987181915e+00
1.1987815157e+00
1.1988768557e+00
1.1990023733e+00
1.1991557694e+00
1.1993343591e+00
1.1995351339e+00
1.1997548413e+00
1.1999900589e+00
1.2002372838e+00
1.2004930088e+00
1.2007538087e+00
1.2010164070e+00
1.2012777468e+00
1.2015350383e+00
1.2017858069e+00
1.2020279164e+00
1.2022595914e+00
1.2024794161e+00
1.2026863325e+00
1.2028796180e+00
1.2030588650e+00
1.2032239441e+00
1.2033749721e+00
1.2035122683e+00
1.2036363191e+00
1.2037477349e+00
1.2038472178e+00
1.2039355246e+00
1.2040134428e+00
1.2040817626e+00
1.2041412628e+00
1.2041926931e+00
1.2042367688e+00
1.2042741622e+00
1.2043055037e+00
1.2043313791e+00
1.2043523349e+00
1.2043688782e+00
1.2043814831e+00
1.2043905913e+00
1.2043966173e+00
1.2043999485e+00
1.2044009490e+00
1.2043999579e+00
1.2043972920e+00
1.2043932434e+00
1.2043880815e+00
1.2043820500e+00
1.2043753694e+00
1.2043682343e+00
1.2043608160e+00
1.2043532613e+00
1.2043456950e+00
1.2043382199e+00
1.2043309198e+00
1.2043238600e+00
1.2043170904e+00
1.2043106463e+00
1.2043045518e+00
1.2042988202e+00
1.2042934570e+00
1.2042884607e+00
1.2042838247e+00
1.2042795382e+00
1.2042755875e+00
1.2042719568e+00
1.2042686290e+00
1.2042655863e+00
1.2042628105e+00
1.2042602834e+00
1.2042579873e+00
1.2042559050e+00
1.2042540197e+00
1.2042523156e+00
1.2042507775e+00
1.2042493912e+00
1.2042481429e+00
1.2042470201e+00
1.2042460108e+00
1.2042451044e+00
1.2042442911e+00
1.2042435629e+00
1.2042429132e+00
1.2042423380e+00
1.2042418358e+00
1.2042414088e+00
1.2042410632e+00
1.2042408111e+00
1.2042406707e+00
1.2042406689e+00
1.2042408425e+00
1.2042412426e+00
1.2042419375e+00
1.2042430202e+00
1.2042446141e+00
1.2042468790e+00
1.2042499979e+00
1.2042376875e+00
1.1987181915e+00
1.1987631949e+00
1.1988273892e+00
1.1989229686e+00
1.1990482592e+00
1.1992010819e+00
1.1993788288e+00
1.1995785529e+00
1.1997970404e+00
1.2000309067e+00
1.2002766711e+00
1.2005308532e+00
1.2007900410e+00
1.2010509767e+00
1.2013106092e+00
1.2015661593e+00
1.2018151508e+00
1.2020554504e+00
1.2022852741e+00
1.2025032019e+00
1.2027081620e+00
1.2028994232e+00
1.2030765622e+00
1.2032394404e+00
1.2033881615e+00
1.2035230404e+00
1.2036445581e+00
1.2037533302e+00
1.2038500655e+00
1.2039355396e+00
1.2040105610e+00
1.2040759528e+00
1.2041325285e+00
1.2041810824e+00
1.2042223740e+00
1.2042571255e+00
1.2042860140e+00
1.2043096733e+00
1.2043286904e+00
1.2043436106e+00
1.2043549353e+00
1.2043631278e+00
1.2043686125e+00
1.2043717791e+00
1.2043729826e+00
1.2043725464e+00
1.2043707618e+00
1.2043678913e+00
1.2043641675e+00
1.2043597964e+00
1.2043549568e+00
1.2043498035e+00
1.2043444673e+00
1.2043390584e+00
1.2043336664e+00
1.2043283642e+00
1.2043232084e+00
1.2043182423e+00
1.2043134972e+00
1.2043089949e+00
1.2043047481e+00
1.2043007637e+00
1.2042970425e+00
1.2042935812e+00
1.2042903733e+00
1.2042874100e+00
1.2042846806e+00
1.2042821732e+00
1.2042798754e+00
1.2042777744e+00
1.2042758573e+00
1.2042741114e+00
1.2042725244e+00
1.2042710841e+00
1.2042697793e+00
1.2042685989e+00
1.2042675326e+00
1.2042665705e+00
1.2042657037e+00
1.2042649234e+00
1.2042642221e+00
1.2042635925e+00
1.2042630287e+00
1.2042625253e+00
1.2042620789e+00
1.2042616867e+00
1.2042613486e+00
1.2042610661e+00
1.2042608438e+00
1.2042606890e+00
1.2042606134e+00
1.2042606322e+00
1.2042607664e+00
1.2042610420e+00
1.2042614914e+00
1.2042621520e+00
1.2042630631e+00
1.2042642540e+00
1.2042657160e+00
1.2042502636e+00
1.1987815157e+00
1.1988273892e+00
1.1988913274e+00
1.1989861117e+00
1.1991101459e+00
1.1992613137e+00
1.1994370722e+00
1.1996345230e+00
1.1998505092e+00
1.2000816890e+00
1.2003246356e+00
1.2005759079e+00
1.2008321446e+00
1.2010901231e+00
1.2013468370e+00
1.2015995360e+00
1.2018457801e+00
1.2020834559e+00
1.2023108052e+00
1.2025264175e+00
1.2027292350e+00
1.2029185254e+00
1.2030938680e+00
1.2032551135e+00
1.2034023586e+00
1.2035359003e+00
1.2036562063e+00
1.2037638703e+00
1.2038595856e+00
1.2039441060e+00
1.2040182261e+00
1.2040827515e+00
1.2041384865e+00
1.2041862145e+00
1.2042266924e+00
1.2042606393e+00
1.2042887362e+00
1.2043116201e+00
1.2043298870e+00
1.2043440890e+00
1.2043547388e+00
1.2043623074e+00
1.2043672291e+00
1.2043698996e+00
1.2043706802e+00
1.2043698966e+00
1.2043678419e+00
1.2043647762e+00
1.2043609299e+00
1.2043565027e+00
1.2043516678e+00
1.2043465716e+00
1.2043413377e+00
1.2043360670e+00
1.2043308418e+00
1.2043257266e+00
1.2043207714e+00
1.2043160131e+00
1.2043114778e+00
1.2043071826e+00
1.2043031372e+00
1.2042993453e+00
1.2042958062e+00
1.2042925152e+00
1.2042894653e+00
1.2042866471e+00
1.2042840502e+00
1.2042816631e+00
1.2042794739e+00
1.2042774703e+00
1.2042756403e+00
1.2042739719e+00
1.2042724535e+00
1.2042710739e+00
1.2042698222e+00
1.2042686884e+00
1.2042676627e+00
1.2042667362e+00
1.2042659002e+00
1.2042651471e+00
1.2042644696e+00
1.2042638615e+00
1.2042633172e+00
1.2042628323e+00
1.2042624034e+00
1.2042620286e+00
1.2042617072e+00
1.2042614410e+00
1.2042612332e+00
1.2042610898e+00
1.2042610190e+00
1.2042610321e+00
1.2042611423e+00
1.2042613655e+00
1.2042617175e+00
1.2042622117e+00
1.2042628509e+00
1.2042636144e+00
1.2042644281e+00
1.2042473927e+00
1.1988768557e+00
1.1989229686e+00
1.1989861117e+00
1.1990794857e+00
1.1992015268e+00
1.1993501779e+00
1.1995229502e+00
1.1997170161e+00
1.1999292773e+00
1.2001564659e+00
1.2003952141e+00
1.2006421541e+00
1.2008939805e+00
1.2011475387e+00
1.2013998709e+00
1.2016482852e+00
1.2018903792e+00
1.2021240846e+00
1.2023476673e+00
1.2025597464e+00
1.2027592737e+00
1.2029455307e+00
1.2031180923e+00
1.2032768087e+00
1.2034217609e+00
1.2035532341e+00
1.2036716723e+00
1.2037776512e+00
1.2038718370e+00
1.2039549638e+00
1.2040278005e+00
1.2040911357e+00
1.2041457537e+00
1.2041924266e+00
1.2042318988e+00
1.2042648854e+00
1.2042920625e+00
1.2043140697e+00
1.2043315042e+00
1.2043449251e+00
1.2043548493e+00
1.2043617559e+00
1.2043660839e+00
1.2043682355e+00
1.2043685742e+00
1.2043674287e+00
1.2043650907e+00
1.2043618193e+00
1.2043578398e+00
1.2043533473e+00
1.2043485073e+00
1.2043434593e+00
1.2043383179e+00
1.2043331764e+00
1.2043281083e+00
1.2043231712e+00
1.2043184074e+00
1.2043138482e+00
1.2043095140e+00
1.2043054180e+00
1.2043015661e+00
1.2042979597e+00
1.2042945959e+00
1.2042914691e+00
1.2042885713e+00
1.2042858931e+00
1.2042834240e+00
1.2042811529e+00
1.2042790684e+00
1.2042771589e+00
1.2042754130e+00
1.2042738195e+00
1.2042723674e+00
1.2042710464e+00
1.2042698463e+00
1.2042687576e+00
1.2042677714e+00
1.2042668792e+00
1.2042660733e+00
1.2042653462e+00
1.2042646917e+00
1.2042641037e+00
1.2042635775e+00
1.2042631086e+00
1.2042626944e+00
1.2042623325e+00
1.2042620227e+00
1.2042617654e+00
1.2042615631e+00
1.2042614197e+00
1.2042613406e+00
1.2042613323e+00
1.2042614025e+00
1.2042615578e+00
1.2042618028e+00
1.2042621352e+00
1.2042625401e+00
1.2042629784e+00
1.2042633697e+00
1.2042453224e+00
1.1990023733e+00
1.1990482592e+00
1.1991101459e+00
1.1992015268e+00
1.1993208736e+00
1.1994661745e+00
1.1996350128e+00
1.1998246272e+00
1.2000320069e+00
1.2002539584e+00
1.2004872068e+00
1.2007284593e+00
1.2009745010e+00
1.2012222462e+00
1.2014688188e+00
1.2017115842e+00
1.2019482072e+00
1.2021766609e+00
1.2023952600e+00
1.2026026475e+00
1.2027978038e+00
1.2029800164e+00
1.2031488701e+00
1.2033042048e+00
1.2034460952e+00
1.2035748042e+00
1.2036907582e+00
1.2037945030e+00
1.2038866815e+00
1.2039679961e+00
1.2040391921e+00
1.2041010295e+00
1.2041542730e+00
1.2041996730e+00
1.2042379612e+00
1.2042698393e+00
1.2042959783e+00
1.2043170120e+00
1.2043335388e+00
1.2043461175e+00
1.2043552696e+00
1.2043614767e+00
1.2043651827e+00
1.2043667916e+00
1.2043666704e+00
1.2043651469e+00
1.2043625128e+00
1.2043590233e+00
1.2043548999e+00
1.2043503311e+00
1.2043454761e+00
1.2043404657e+00
1.2043354071e+00
1.2043303846e+00
1.2043254643e+00
1.2043206953e+00
1.2043161140e+00
1.2043117447e+00
1.2043076034e+00
1.2043036984e+00
1.2043000327e+00
1.2042966046e+00
1.2042934098e+00
1.2042904411e+00
1.2042876900e+00
1.2042851468e+00
1.2042828011e+00
1.2042806420e+00
1.2042786586e+00
1.2042768400e+00
1.2042751754e+00
1.2042736542e+00
1.2042722664e+00
1.2042710021e+00
1.2042698519e+00
1.2042688070e+00
1.2042678590e+00
1.2042670002e+00
1.2042662231e+00
1.2042655213e+00
1.2042648884e+00
1.2042643194e+00
1.2042638093e+00
1.2042633545e+00
1.2042629519e+00
1.2042625996e+00
1.2042622963e+00
1.2042620424e+00
1.2042618387e+00
1.2042616874e+00
1.2042615910e+00
1.2042615530e+00
1.2042615754e+00
1.2042616595e+00
1.2042618019e+00
1.2042619927e+00
1.2042622098e+00
1.2042624130e+00
1.2042625343e+00
1.2042438344e+00
1.1991557694e+00
1.1992010819e+00
1.1992613137e+00
1.1993501779e+00
1.1994661745e+00
1.1996073552e+00
1.1997713686e+00
1.1999555461e+00
1.2001569607e+00
1.2003725261e+00
1.2005990579e+00
1.2008333738e+00
1.2010723472e+00
1.2013129964e+00
1.2015525234e+00
1.2017883833e+00
1.2020183025e+00
1.2022403241e+00
1.2024528042e+00
1.2026544326e+00
1.2028442097e+00
1.2030214466e+00
1.2031857273e+00
1.2033368950e+00
1.2034750064e+00
1.2036003112e+00
1.2037132058e+00
1.2038142124e+00
1.2039039381e+00
1.2039830572e+00
1.2040522793e+00
1.2041123380e+00
1.2041639672e+00
1.2042078964e+00
1.2042448348e+00
1.2042754705e+00
1.2043004610e+00
1.2043204343e+00
1.2043359826e+00
1.2043476645e+00
1.2043560002e+00
1.2043614738e+00
1.2043645296e+00
1.2043655744e+00
1.2043649743e+00
1.2043630576e+00
1.2043601131e+00
1.2043563931e+00
1.2043521135e+00
1.2043474573e+00
1.2043425757e+00
1.2043375924e+00
1.2043326055e+00
1.2043276917e+00
1.2043229084e+00
1.2043182981e+00
1.2043138894e+00
1.2043097013e+00
1.2043057441e+00
1.2043020223e+00
1.2042985350e+00
1.2042952786e+00
1.2042922462e+00
1.2042894300e+00
1.2042868203e+00
1.2042844074e+00
1.2042821807e+00
1.2042801298e+00
1.2042782441e+00
1.2042765134e+00
1.2042749273e+00
1.2042734762e+00
1.2042721505e+00
1.2042709411e+00
1.2042698393e+00
1.2042688368e+00
1.2042679259e+00
1.2042670993e+00
1.2042663502e+00
1.2042656723e+00
1.2042650601e+00
1.2042645085e+00
1.2042640131e+00
1.2042635702e+00
1.2042631770e+00
1.2042628309e+00
1.2042625309e+00
1.2042622759e+00
1.2042620661e+00
1.2042619016e+00
1.2042617834e+00
1.2042617114e+00
1.2042616851e+00
1.2042617009e+00
1.2042617523e+00
1.2042618255e+00
1.2042618982e+00
1.2042619350e+00
1.2042618846e+00
1.2042427528e+00
1.1993343591e+00
1.1993788288e+00
1.1994370722e+00
1.1995229502e+00
1.1996350128e+00
1.1997713686e+00
1.1999297565e+00
1.2001075939e+00
1.2003020689e+00
1.2005101963e+00
1.2007289178e+00
1.2009551554e+00
1.2011859068e+00
1.2014182880e+00
1.2016496133e+00
1.2018774201e+00
1.2020995274e+00
1.2023140391e+00
1.2025193792e+00
1.2027142740e+00
1.2028977652e+00
1.2030691760e+00
1.2032281064e+00
1.2033743901e+00
1.2035080784e+00
1.2036293945e+00
1.2037387140e+00
1.2038365223e+00
1.2039233965e+00
1.2039999705e+00
1.2040669219e+00
1.2041249460e+00
1.2041747483e+00
1.2042170267e+00
1.2042524689e+00
1.2042817406e+00
1.2043054861e+00
1.2043243197e+00
1.2043388279e+00
1.2043495626e+00
1.2043570431e+00
1.2043617512e+00
1.2043641321e+00
1.2043645910e+00
1.2043634946e+00
1.2043611685e+00
1.2043578996e+00
1.2043539355e+00
1.2043494873e+00
1.2043447308e+00
1.2043398108e+00
1.2043348422e+00
1.2043299157e+00
1.2043250990e+00
1.2043204422e+00
1.2043159797e+00
1.2043117340e+00
1.2043077175e+00
1.2043039359e+00
1.2043003889e+00
1.2042970728e+00
1.2042939809e+00
1.2042911048e+00
1.2042884351e+00
1.2042859618e+00
1.2042836744e+00
1.2042815626e+00
1.2042796161e+00
1.2042778249e+00
1.2042761790e+00
1.2042746690e+00
1.2042732856e+00
1.2042720201e+00
1.2042708639e+00
1.2042698089e+00
1.2042688475e+00
1.2042679724e+00
1.2042671769e+00
1.2042664546e+00
1.2042657998e+00
1.2042652070e+00
1.2042646717e+00
1.2042641895e+00
1.2042637569e+00
1.2042633708e+00
1.2042630289e+00
1.2042627291e+00
1.2042624703e+00
1.2042622512e+00
1.2042620710e+00
1.2042619287e+00
1.2042618226e+00
1.2042617494e+00
1.2042617042e+00
1.2042616779e+00
1.2042616569e+00
1.2042616204e+00
1.2042615405e+00
1.2042613796e+00
1.2042419521e+00
1.1995351339e+00
1.1995785529e+00
1.1996345230e+00
1.1997170161e+00
1.1998246272e+00
1.1999555461e+00
1.2001075939e+00
1.2002783036e+00
1.2004649691e+00
1.2006647407e+00
1.2008746762e+00
1.2010918386e+00
1.2013133400e+00
1.2015364296e+00
1.2017585236e+00
1.2019772748e+00
1.2021905833e+00
1.2023966435e+00
1.2025939344e+00
1.2027812439e+00
1.2029576418e+00
1.2031224834e+00
1.2032753712e+00
1.2034161447e+00
1.2035448361e+00
1.2036616539e+00
1.2037669392e+00
1.2038611487e+00
1.2039448169e+00
1.2040185426e+00
1.2040829597e+00
1.2041387287e+00
1.2041865156e+00
1.2042269891e+00
1.2042608058e+00
1.2042886103e+00
1.2043110253e+00
1.2043286526e+00
1.2043420657e+00
1.2043518110e+00
1.2043584012e+00
1.2043623164e+00
1.2043639986e+00
1.2043638526e+00
1.2043622421e+00
1.2043594914e+00
1.2043558831e+00
1.2043516610e+00
1.2043470300e+00
1.2043421603e+00
1.2043371882e+00
1.2043322218e+00
1.2043273426e+00
1.2043226111e+00
1.2043180689e+00
1.2043137433e+00
1.2043096498e+00
1.2043057952e+00
1.2043021798e+00
1.2042987994e+00
1.2042956466e+00
1.2042927122e+00
1.2042899859e+00
1.2042874571e+00
1.2042851148e+00
1.2042829483e+00
1.2042809472e+00
1.2042791014e+00
1.2042774012e+00
1.2042758374e+00
1.2042744008e+00
1.2042730829e+00
1.2042718756e+00
1.2042707708e+00
1.2042697611e+00
1.2042688394e+00
1.2042679990e+00
1.2042672335e+00
1.2042665370e+00
1.2042659041e+00
1.2042653298e+00
1.2042648095e+00
1.2042643394e+00
1.2042639156e+00
1.2042635352e+00
1.2042631955e+00
1.2042628944e+00
1.2042626297e+00
1.2042623999e+00
1.2042622028e+00
1.2042620365e+00
1.2042618977e+00
1.2042617824e+00
1.2042616839e+00
1.2042615935e+00
1.2042614979e+00
1.2042613802e+00
1.2042612178e+00
1.2042609848e+00
1.2042413466e+00
1.1997548413e+00
1.1997970404e+00
1.1998505092e+00
1.1999292773e+00
1.2000320069e+00
1.2001569607e+00
1.2003020689e+00
1.2004649691e+00
1.2006430933e+00
1.2008337146e+00
1.2010340427e+00
1.2012412678e+00
1.2014526527e+00
1.2016655660e+00
1.2018775605e+00
1.2020863899e+00
1.2022900671e+00
1.2024868619e+00
1.2026753364e+00
1.2028543248e+00
1.2030229478e+00
1.2031805782e+00
1.2033268390e+00
1.2034615612e+00
1.2035847721e+00
1.2036966513e+00
1.2037975161e+00
1.2038877813e+00
1.2039679463e+00
1.2040385627e+00
1.2041002258e+00
1.2041535501e+00
1.2041991660e+00
1.2042377028e+00
1.2042697884e+00
1.2042960376e+00
1.2043170533e+00
1.2043334172e+00
1.2043456914e+00
1.2043544105e+00
1.2043600820e+00
1.2043631796e+00
1.2043641432e+00
1.2043633736e+00
1.2043612331e+00
1.2043580417e+00
1.2043540792e+00
1.2043495839e+00
1.2043447558e+00
1.2043397577e+00
1.2043347195e+00
1.2043297407e+00
1.2043248954e+00
1.2043202355e+00
1.2043157952e+00
1.2043115943e+00
1.2043076418e+00
1.2043039384e+00
1.2043004796e+00
1.2042972567e+00
1.2042942591e+00
1.2042914747e+00
1.2042888917e+00
1.2042864976e+00
1.2042842809e+00
1.2042822304e+00
1.2042803357e+00
1.2042785868e+00
1.2042769743e+00
1.2042754894e+00
1.2042741237e+00
1.2042728690e+00
1.2042717178e+00
1.2042706627e+00
1.2042696967e+00
1.2042688134e+00
1.2042680063e+00
1.2042672697e+00
1.2042665980e+00
1.2042659861e+00
1.2042654292e+00
1.2042649231e+00
1.2042644637e+00
1.2042640478e+00
1.2042636719e+00
1.2042633334e+00
1.2042630297e+00
1.2042627584e+00
1.2042625170e+00
1.2042623033e+00
1.2042621140e+00
1.2042619457e+00
1.2042617931e+00
1.2042616499e+00
1.2042615071e+00
1.2042613537e+00
1.2042611751e+00
1.2042609546e+00
1.2042606731e+00
1.2042408798e+00
1.1999900589e+00
1.2000309067e+00
1.2000816890e+00
1.2001564659e+00
1.2002539584e+00
1.2003725261e+00
1.2005101963e+00
1.2006647407e+00
1.2008337146e+00
1.2010145475e+00
1.2012045847e+00
1.2014011791e+00
1.2016017272e+00
1.2018037519e+00
1.2020049251e+00
1.2022031347e+00
1.2023964887e+00
1.2025833619e+00
1.2027623823e+00
1.2029324557e+00
1.2030927373e+00
1.2032426381e+00
1.2033817862e+00
1.2035100207e+00
1.2036273490e+00
1.2037339352e+00
1.2038300587e+00
1.2039161025e+00
1.2039925182e+00
1.2040598175e+00
1.2041185452e+00
1.2041692756e+00
1.2042125928e+00
1.2042490905e+00
1.2042793589e+00
1.2043039856e+00
1.2043235459e+00
1.2043386036e+00
1.2043497030e+00
1.2043573684e+00
1.2043620970e+00
1.2043643576e+00
1.2043645842e+00
1.2043631752e+00
1.2043604883e+00
1.2043568411e+00
1.2043525084e+00
1.2043477246e+00
1.2043426831e+00
1.2043375410e+00
1.2043324205e+00
1.2043274138e+00
1.2043225869e+00
1.2043179840e+00
1.2043136315e+00
1.2043095421e+00
1.2043057181e+00
1.2043021546e+00
1.2042988416e+00
1.2042957666e+00
1.2042929152e+00
1.2042902731e+00
1.2042878258e+00
1.2042855601e+00
1.2042834632e+00
1.2042815236e+00
1.2042797307e+00
1.2042780745e+00
1.2042765461e+00
1.2042751370e+00
1.2042738392e+00
1.2042726453e+00
1.2042715480e+00
1.2042705407e+00
1.2042696169e+00
1.2042687704e+00
1.2042679954e+00
1.2042672865e+00
1.2042666386e+00
1.2042660466e+00
1.2042655063e+00
1.2042650133e+00
1.2042645641e+00
1.2042641549e+00
1.2042637828e+00
1.2042634447e+00
1.2042631379e+00
1.2042628595e+00
1.2042626071e+00
1.2042623775e+00
1.2042621674e+00
1.2042619727e+00
1.2042617883e+00
1.2042616077e+00
1.2042614232e+00
1.2042612247e+00
1.2042610010e+00
1.2042607389e+00
1.2042604249e+00
1.2042405137e+00
1.2002372838e+00
1.2002766711e+00
1.2003246356e+00
1.2003952141e+00
1.2004872068e+00
1.2005990579e+00
1.2007289178e+00
1.2008746762e+00
1.2010340427e+00
1.2012045847e+00
1.2013838165e+00
1.2015692343e+00
1.2017584022e+00
1.2019489776e+00
1.2021387846e+00
1.2023258248e+00
1.2025083323e+00
1.2026847673e+00
1.2028538507e+00
1.2030145415e+00
1.2031660524e+00
1.2033078155e+00
1.2034394829e+00
1.2035608859e+00
1.2036720278e+00
1.2037730421e+00
1.2038641829e+00
1.2039457878e+00
1.2040182703e+00
1.2040820901e+00
1.2041377490e+00
1.2041857699e+00
1.2042266960e+00
1.2042610764e+00
1.2042894671e+00
1.2043124206e+00
1.2043304873e+00
1.2043442065e+00
1.2043541068e+00
1.2043606970e+00
1.2043644657e+00
1.2043658728e+00
1.2043653481e+00
1.2043632842e+00
1.2043600364e+00
1.2043559174e+00
1.2043511988e+00
1.2043461092e+00
1.2043408375e+00
1.2043355336e+00
1.2043303134e+00
1.2043252613e+00
1.2043204359e+00
1.2043158735e+00
1.2043115933e+00
1.2043076005e+00
1.2043038914e+00
1.2043004547e+00
1.2042972760e+00
1.2042943380e+00
1.2042916232e+00
1.2042891142e+00
1.2042867950e+00
1.2042846503e+00
1.2042826669e+00
1.2042808324e+00
1.2042791362e+00
1.2042775683e+00
1.2042761200e+00
1.2042747831e+00
1.2042735501e+00
1.2042724141e+00
1.2042713684e+00
1.2042704067e+00
1.2042695231e+00
1.2042687119e+00
1.2042679676e+00
1.2042672852e+00
1.2042666598e+00
1.2042660868e+00
1.2042655621e+00
1.2042650816e+00
1.2042646415e+00
1.2042642387e+00
1.2042638696e+00
1.2042635316e+00
1.2042632214e+00
1.2042629364e+00
1.2042626734e+00
1.2042624295e+00
1.2042622007e+00
1.2042619833e+00
1.2042617719e+00
1.2042615609e+00
1.2042613429e+00
1.2042611099e+00
1.2042608525e+00
1.2042605609e+00
1.2042602247e+00
1.2042402225e+00
1.2004930088e+00
1.2005308532e+00
1.2005759079e+00
1.2006421541e+00
1.2007284593e+00
1.2008333738e+00
1.2009551554e+00
1.2010918386e+00
1.2012412678e+00
1.2014011791e+00
1.2015692343e+00
1.2017431051e+00
1.2019205008e+00
1.2020992454e+00
1.2022772927e+00
1.2024527888e+00
1.2026240719e+00
1.2027897156e+00
1.2029485130e+00
1.2030995009e+00
1.2032419307e+00
1.2033752762e+00
1.2034991966e+00
1.2036135330e+00
1.2037182686e+00
1.2038135211e+00
1.2038995052e+00
1.2039765249e+00
1.2040449428e+00
1.2041051758e+00
1.2041576717e+00
1.2042029091e+00
1.2042413807e+00
1.2042735958e+00
1.2043000683e+00
1.2043213193e+00
1.2043378676e+00
1.2043502308e+00
1.2043589158e+00
1.2043644187e+00
1.2043672149e+00
1.2043677574e+00
1.2043664685e+00
1.2043637373e+00
1.2043599136e+00
1.2043553075e+00
1.2043501856e+00
1.2043447726e+00
1.2043392515e+00
1.2043337668e+00
1.2043284271e+00
1.2043233105e+00
1.2043184674e+00
1.2043139274e+00
1.2043097016e+00
1.2043057891e+00
1.2043021791e+00
1.2042988552e+00
1.2042957973e+00
1.2042929843e+00
1.2042903949e+00
1.2042880092e+00
1.2042858088e+00
1.2042837772e+00
1.2042818999e+00
1.2042801640e+00
1.2042785586e+00
1.2042770738e+00
1.2042757008e+00
1.2042744321e+00
1.2042732603e+00
1.2042721791e+00