# vtk DataFile Version 2.0
Blank
ASCII
DATASET STRUCTURED_GRID
DIMENSIONS 101 101 2
POINTS 20402 float
0.0000000000e+00 0.0000000000e+00 0.0000000000e+00
1.0000000000e-02 0.0000000000e+00 0.0000000000e+00
2.0000000000e-02 0.0000000000e+00 0.0000000000e+00
3.0000000000e-02 0.0000000000e+00 0.0000000000e+00
4.0000000000e-02 0.0000000000e+00 0.0000000000e+00
5.0000000000e-02 0.0000000000e+00 0.0000000000e+00
6.0000000000e-02 0.0000000000e+00 0.0000000000e+00
7.0000000000e-02 0.0000000000e+00 0.0000000000e+00
8.0000000000e-02 0.0000000000e+00 0.0000000000e+00
9.0000000000e-02 0.0000000000e+00 0.0000000000e+00
1.0000000000e-01 0.0000000000e+00 0.0000000000e+00
1.1000000000e-01 0.0000000000e+00 0.0000000000e+00
1.2000000000e-01 0.0000000000e+00 0.0000000000e+00
1.3000000000e-01 0.0000000000e+00 0.0000000000e+00
1.4000000000e-01 0.0000000000e+00 0.0000000000e+00
1.5000000000e-01 0.0000000000e+00 0.0000000000e+00
1.6000000000e-01 0.0000000000e+00 0.0000000000e+00
1.7000000000e-01 0.0000000000e+00 0.0000000000e+00
1.8000000000e-01 0.0000000000e+00 0.0000000000e+00
1.9000000000e-01 0.0000000000e+00 0.0000000000e+00
2.0000000000e-01 0.0000000000e+00 0.0000000000e+00
2.1000000000e-01 0.0000000000e+00 0.0000000000e+00
2.2000000000e-01 0.0000000000e+00 0.0000000000e+00
2.3000000000e-01 0.0000000000e+00 0.0000000000e+00
2.4000000000e-01 0.0000000000e+00 0.0000000000e+00
2.5000000000e-01 0.0000000000e+00 0.0000000000e+00
2.6000000000e-01 0.0000000000e+00 0.0000000000e+00
2.7000000000e-01 0.0000000000e+00 0.0000000000e+00
2.8000000000e-01 0.0000000000e+00 0.0000000000e+00
2.9000000000e-01 0.0000000000e+00 0.0000000000e+00
3.0000000000e-01 0.0000000000e+00 0.0000000000e+00
3.1000000000e-01 0.0000000000e+00 0.0000000000e+00
3.2000000000e-01 0.0000000000e+00 0.0000000000e+00
3.3000000000e-01 0.0000000000e+00 0.0000000000e+00
3.4000000000e-01 0.0000000000e+00 0.0000000000e+00
3.5000000000e-01 0.0000000000e+00 0.0000000000e+00
3.6000000000e-01 0.0000000000e+00 0.0000000000e+00
3.7000000000e-01 0.0000000000e+00 0.0000000000e+00
3.8000000000e-01 0.0000000000e+00 0.0000000000e+00
3.9000000000e-01 0.0000000000e+00 0.0000000000e+00
4.0000000000e-01 0.0000000000e+00 0.0000000000e+00
4.1000000000e-01 0.0000000000e+00 0.0000000000e+00
4.2000000000e-01 0.0000000000e+00 0.0000000000e+00
4.3000000000e-01 0.0000000000e+00 0.0000000000e+00
4.4000000000e-01 0.0000000000e+00 0.0000000000e+00
4.5000000000e-01 0.0000000000e+00 0.0000000000e+00
4.6000000000e-01 0.0000000000e+00 0.0000000000e+00
4.7000000000e-01 0.0000000000e+00 0.0000000000e+00
4.8000000000e-01 0.0000000000e+00 0.0000000000e+00
4.9000000000e-01 0.0000000000e+00 0.0000000000e+00
5.0000000000e-01 0.0000000000e+00 0.0000000000e+00
5.1000000000e-01 0.0000000000e+00 0.0000000000e+00
5.2000000000e-01 0.0000000000e+00 0.0000000000e+00
5.3000000000e-01 0.0000000000e+00 0.0000000000e+00
5.4000000000e-01 0.0000000000e+00 0.0000000000e+00
5.5000000000e-01 0.0000000000e+00 0.0000000000e+00
5.6000000000e-01 0.0000000000e+00 0.0000000000e+00
5.7000000000e-01 0.0000000000e+00 0.0000000000e+00
5.8000000000e-01 0.0000000000e+00 0.0000000000e+00
5.9000000000e-01 0.0000000000e+00 0.0000000000e+00
6.0000000000e-01 0.0000000000e+00 0.0000000000e+00
6.1000000000e-01 0.0000000000e+00 0.0000000000e+00
6.2000000000e-01 0.0000000000e+00 0.0000000000e+00
6.3000000000e-01 0.0000000000e+00 0.0000000000e+00
6.4000000000e-01 0.0000000000e+00 0.0000000000e+00
6.5000000000e-01 0.0000000000e+00 0.0000000000e+00
6.6000000000e-01 0.0000000000e+00 0.0000000000e+00
6.7000000000e-01 0.0000000000e+00 0.0000000000e+00
6.8000000000e-01 0.0000000000e+00 0.0000000000e+00
6.9000000000e-01 0.0000000000e+00 0.0000000000e+00
7.0000000000e-01 0.0000000000e+00 0.0000000000e+00
7.1000000000e-01 0.0000000000e+00 0.0000000000e+00
7.2000000000e-01 0.0000000000e+00 0.0000000000e+00
7.3000000000e-01 0.0000000000e+00 0.0000000000e+00
7.4000000000e-01 0.0000000000e+00 0.0000000000e+00
7.5000000000e-01 0.0000000000e+00 0.0000000000e+00
7.6000000000e-01 0.0000000000e+00 0.0000000000e+00
7.7000000000e-01 0.0000000000e+00 0.0000000000e+00
7.8000000000e-01 0.0000000000e+00 0.0000000000e+00
7.9000000000e-01 0.0000000000e+00 0.0000000000e+00
8.0000000000e-01 0.0000000000e+00 0.0000000000e+00
8.1000000000e-01 0.0000000000e+00 0.0000000000e+00
8.2000000000e-01 0.0000000000e+00 0.0000000000e+00
8.3000000000e-01 0.0000000000e+00 0.0000000000e+00
8.4000000000e-01 0.0000000000e+00 0.0000000000e+00
8.5000000000e-01 0.0000000000e+00 0.0000000000e+00
8.6000000000e-01 0.0000000000e+00 0.0000000000e+00
8.7000000000e-01 0.0000000000e+00 0.0000000000e+00
8.8000000000e-01 0.0000000000e+00 0.0000000000e+00
8.9000000000e-01 0.0000000000e+00 0.0000000000e+00
9.0000000000e-01 0.0000000000e+00 0.0000000000e+00
9.1000000000e-01 0.0000000000e+00 0.0000000000e+00
9.2000000000e-01 0.0000000000e+00 0.0000000000e+00
9.3000000000e-01 0.0000000000e+00 0.0000000000e+00
9.4000000000e-01 0.0000000000e+00 0.0000000000e+00
9.5000000000e-01 0.0000000000e+00 0.0000000000e+00
9.6000000000e-01 0.0000000000e+00 0.0000000000e+00
9.7000000000e-01 0.0000000000e+00 0.0000000000e+00
9.8000000000e-01 0.0000000000e+00 0.0000000000e+00
9.9000000000e-01 0.0000000000e+00 0.0000000000e+00
1.0000000000e+00 0.0000000000e+00 0.0000000000e+00
0.0000000000e+00 1.0000000000e-02 0.0000000000e+00
1.0000000000e-02 1.0000000000e-02 0.0000000000e+00
2.0000000000e-02 1.0000000000e-02 0.0000000000e+00
3.0000000000e-02 1.0000000000e-02 0.0000000000e+00
4.0000000000e-02 1.0000000000e-02 0.0000000000e+00
5.0000000000e-02 1.0000000000e-02 0.0000000000e+00
6.0000000000e-02 1.0000000000e-02 0.0000000000e+00
7.0000000000e-02 1.0000000000e-02 0.0000000000e+00
8.0000000000e-02 1.0000000000e-02 0.0000000000e+00
9.0000000000e-02 1.0000000000e-02 0.0000000000e+00
1.0000000000e-01 1.0000000000e-02 0.0000000000e+00
1.1000000000e-01 1.0000000000e-02 0.0000000000e+00
1.2000000000e-01 1.0000000000e-02 0.0000000000e+00
1.3000000000e-01 1.0000000000e-02 0.0000000000e+00
1.4000000000e-01 1.0000000000e-02 0.0000000000e+00
1.5000000000e-01 1.0000000000e-02 0.0000000000e+00
1.6000000000e-01 1.0000000000e-02 0.0000000000e+00
1.7000000000e-01 1.0000000000e-02 0.0000000000e+00
1.8000000000e-01 1.0000000000e-02 0.0000000000e+00
1.9000000000e-01 1.0000000000e-02 0.0000000000e+00
2.0000000000e-01 1.0000000000e-02 0.0000000000e+00
2.1000000000e-01 1.0000000000e-02 0.0000000000e+00
2.2000000000e-01 1.0000000000e-02 0.0000000000e+00
2.3000000000e-01 1.0000000000e-02 0.0000000000e+00
2.4000000000e-01 1.0000000000e-02 0.0000000000e+00
2.5000000000e-01 1.0000000000e-02 0.0000000000e+00
2.6000000000e-01 1.0000000000e-02 0.0000000000e+00
2.7000000000e-01 1.0000000000e-02 0.0000000000e+00
2.8000000000e-01 1.0000000000e-02 0.0000000000e+00
2.9000000000e-01 1.0000000000e-02 0.0000000000e+00
3.0000000000e-01 1.0000000000e-02 0.0000000000e+00
3.1000000000e-01 1.0000000000e-02 0.0000000000e+00
3.2000000000e-01 1.0000000000e-02 0.0000000000e+00
3.3000000000e-01 1.0000000000e-02 0.0000000000e+00
3.4000000000e-01 1.0000000000e-02 0.0000000000e+00
3.5000000000e-01 1.0000000000e-02 0.0000000000e+00
3.6000000000e-01 1.0000000000e-02 0.0000000000e+00
3.7000000000e-01 1.0000000000e-02 0.0000000000e+00
3.8000000000e-01 1.0000000000e-02 0.0000000000e+00
3.9000000000e-01 1.0000000000e-02 0.0000000000e+00
4.0000000000e-01 1.0000000000e-02 0.0000000000e+00
4.1000000000e-01 1.0000000000e-02 0.0000000000e+00
4.2000000000e-01 1.0000000000e-02 0.0000000000e+00
4.3000000000e-01 1.0000000000e-02 0.0000000000e+00
4.4000000000e-01 1.0000000000e-02 0.0000000000e+00
4.5000000000e-01 1.0000000000e-02 0.0000000000e+00
4.6000000000e-01 1.0000000000e-02 0.0000000000e+00
4.7000000000e-01 1.0000000000e-02 0.0000000000e+00
4.8000000000e-01 1.0000000000e-02 0.0000000000e+00
4.9000000000e-01 1.0000000000e-02 0.0000000000e+00
5.0000000000e-01 1.0000000000e-02 0.0000000000e+00
5.1000000000e-01 1.0000000000e-02 0.0000000000e+00
5.2000000000e-01 1.0000000000e-02 0.0000000000e+00
5.3000000000e-01 1.0000000000e-02 0.0000000000e+00
5.4000000000e-01 1.0000000000e-02 0.0000000000e+00
5.5000000000e-01 1.0000000000e-02 0.0000000000e+00
5.6000000000e-01 1.0000000000e-02 0.0000000000e+00
5.7000000000e-01 1.0000000000e-02 0.0000000000e+00
5.8000000000e-01 1.0000000000e-02 0.0000000000e+00
5.9000000000e-01 1.0000000000e-02 0.0000000000e+00
6.0000000000e-01 1.0000000000e-02 0.0000000000e+00
6.1000000000e-01 1.0000000000e-02 0.0000000000e+00
6.2000000000e-01 1.0000000000e-02 0.0000000000e+00
6.3000000000e-01 1.0000000000e-02 0.0000000000e+00
6.4000000000e-01 1.0000000000e-02 0.0000000000e+00
6.5000000000e-01 1.0000000000e-02 0.0000000000e+00
6.6000000000e-01 1.0000000000e-02 0.0000000000e+00
6.7000000000e-01 1.0000000000e-02 0.0000000000e+00
6.8000000000e-01 1.0000000000e-02 0.0000000000e+00
6.9000000000e-01 1.0000000000e-02 0.0000000000e+00
7.0000000000e-01 1.0000000000e-02 0.0000000000e+00
7.1000000000e-01 1.0000000000e-02 0.0000000000e+00
7.2000000000e-01 1.0000000000e-02 0.0000000000e+00
7.3000000000e-01 1.0000000000e-02 0.0000000000e+00
7.4000000000e-01 1.0000000000e-02 0.0000000000e+00
7.5000000000e-01 1.0000000000e-02 0.0000000000e+00
7.6000000000e-01 1.0000000000e-02 0.0000000000e+00
7.7000000000e-01 1.0000000000e-02 0.0000000000e+00
7.8000000000e-01 1.0000000000e-02 0.0000000000e+00
7.9000000000e-01 1.0000000000e-02 0.0000000000e+00
8.0000000000e-01 1.0000000000e-02 0.0000000000e+00
8.1000000000e-01 1.0000000000e-02 0.0000000000e+00
8.2000000000e-01 1.0000000000e-02 0.0000000000e+00
8.3000000000e-01 1.0000000000e-02 0.0000000000e+00
8.4000000000e-01 1.0000000000e-02 0.0000000000e+00
8.5000000000e-01 1.0000000000e-02 0.0000000000e+00
8.6000000000e-01 1.0000000000e-02 0.0000000000e+00
8.7000000000e-01 1.0000000000e-02 0.0000000000e+00
8.8000000000e-01 1.0000000000e-02 0.0000000000e+00
8.9000000000e-01 1.0000000000e-02 0.0000000000e+00
9.0000000000e-01 1.0000000000e-02 0.0000000000e+00
9.1000000000e-01 1.0000000000e-02 0.0000000000e+00
9.2000000000e-01 1.0000000000e-02 0.0000000000e+00
[...]
CELL_DATA 10000

SCALARS massDensity float
LOOKUP_TABLE default
1.2015917868e+00
1.2016028333e+00
1.2016176669e+00
1.2016403209e+00
1.2016705455e+00
1.2017080377e+00
1.2017524472e+00
1.2018033791e+00
1.2018603967e+00
1.2019230257e+00
1.2019907582e+00
1.2020630594e+00
1.2021393729e+00
1.2022191276e+00
1.2023017440e+00
1.2023866415e+00
1.2024732439e+00
1.2025609867e+00
1.2026493216e+00
1.2027377230e+00
1.2028256920e+00
1.2029127609e+00
1.2029984965e+00
1.2030825030e+00
1.2031644243e+00
1.2032439451e+00
1.2033207922e+00
1.2033947342e+00
1.2034655812e+00
1.2035331840e+00
1.2035974325e+00
1.2036582537e+00
1.2037156096e+00
1.2037694944e+00
1.2038199322e+00
1.2038669732e+00
1.2039106916e+00
1.2039511815e+00
1.2039885547e+00
1.2040229371e+00
1.2040544657e+00
1.2040832864e+00
1.2041095508e+00
1.2041334138e+00
1.2041550319e+00
1.2041745609e+00
1.2041921539e+00
1.2042079606e+00
1.2042221252e+00
1.2042347859e+00
1.2042460741e+00
1.2042561137e+00
1.2042650207e+00
1.2042729029e+00
1.2042798604e+00
1.2042859848e+00
1.2042913602e+00
1.2042960631e+00
1.2043001626e+00
1.2043037215e+00
1.2043067960e+00
1.2043094367e+00
1.2043116890e+00
1.2043135933e+00
1.2043151861e+00
1.2043164998e+00
1.2043175638e+00
1.2043184044e+00
1.2043190452e+00
1.2043195081e+00
1.2043198125e+00
1.2043199766e+00
1.2043200171e+00
1.2043199492e+00
1.2043197874e+00
1.2043195449e+00
1.2043192344e+00
1.2043188676e+00
1.2043184553e+00
1.2043180081e+00
1.2043175354e+00
1.2043170462e+00
1.2043165490e+00
1.2043160514e+00
1.2043155605e+00
1.2043150828e+00
1.2043146242e+00
1.2043141901e+00
1.2043137855e+00
1.2043134153e+00
1.2043130841e+00
1.2043127968e+00
1.2043125589e+00
1.2043123770e+00
1.2043122588e+00
1.2043122144e+00
1.2043122556e+00
1.2043123965e+00
1.2043126508e+00
1.2043119149e+00
1.2016028333e+00
1.2016146474e+00
1.2016298404e+00
1.2016526783e+00
1.2016829644e+00
1.2017204311e+00
1.2017647515e+00
1.2018155458e+00
1.2018723879e+00
1.2019348107e+00
1.2020023121e+00
1.2020743615e+00
1.2021504062e+00
1.2022298781e+00
1.2023122009e+00
1.2023967959e+00
1.2024830899e+00
1.2025705198e+00
1.2026585398e+00
1.2027466257e+00
1.2028342805e+00
1.2029210377e+00
1.2030064655e+00
1.2030901692e+00
1.2031717935e+00
1.2032510240e+00
1.2033275879e+00
1.2034012542e+00
1.2034718334e+00
1.2035391761e+00
1.2036031721e+00
1.2036637482e+00
1.2037208660e+00
1.2037745193e+00
1.2038247312e+00
1.2038715515e+00
1.2039150535e+00
1.2039553306e+00
1.2039924938e+00
1.2040266680e+00
1.2040579897e+00
1.2040866038e+00
1.2041126614e+00
1.2041363171e+00
1.2041577267e+00
1.2041770458e+00
1.2041944275e+00
1.2042100215e+00
1.2042239723e+00
1.2042364186e+00
1.2042474923e+00
1.2042573181e+00
1.2042660129e+00
1.2042736857e+00
1.2042804378e+00
1.2042863621e+00
1.2042915441e+00
1.2042960618e+00
1.2042999858e+00
1.2043033802e+00
1.2043063027e+00
1.2043088053e+00
1.2043109343e+00
1.2043127316e+00
1.2043142342e+00
1.2043154755e+00
1.2043164850e+00
1.2043172895e+00
1.2043179128e+00
1.2043183761e+00
1.2043186987e+00
1.2043188980e+00
1.2043189897e+00
1.2043189882e+00
1.2043189065e+00
1.2043187565e+00
1.2043185492e+00
1.2043182947e+00
1.2043180022e+00
1.2043176802e+00
1.2043173367e+00
1.2043169788e+00
1.2043166131e+00
1.2043162457e+00
1.2043158821e+00
1.2043155274e+00
1.2043151861e+00
1.2043148625e+00
1.2043145605e+00
1.2043142836e+00
1.2043140356e+00
1.2043138201e+00
1.2043136409e+00
1.2043135021e+00
1.2043134086e+00
1.2043133653e+00
1.2043133776e+00
1.2043134502e+00
1.2043135845e+00
1.2043125883e+00
1.2016176669e+00
1.2016298404e+00
1.2016451132e+00
1.2016679290e+00
1.2016981096e+00
1.2017354027e+00
1.2017794926e+00
1.2018300080e+00
1.2018865292e+00
1.2019485945e+00
1.2020157063e+00
1.2020873382e+00
1.2021629413e+00
1.2022419516e+00
1.2023237959e+00
1.2024078998e+00
1.2024936928e+00
1.2025806157e+00
1.2026681256e+00
1.2027557018e+00
1.2028428497e+00
1.2029291059e+00
1.2030140408e+00
1.2030972623e+00
1.2031784169e+00
1.2032571923e+00
1.2033333171e+00
1.2034065617e+00
1.2034767375e+00
1.2035436963e+00
1.2036073282e+00
1.2036675607e+00
1.2037243553e+00
1.2037777059e+00
1.2038276355e+00
1.2038741937e+00
1.2039174529e+00
1.2039575063e+00
1.2039944638e+00
1.2040284497e+00
1.2040595996e+00
1.2040880575e+00
1.2041139733e+00
1.2041375006e+00
1.2041587943e+00
1.2041780088e+00
1.2041952963e+00
1.2042108054e+00
1.2042246795e+00
1.2042370565e+00
1.2042480675e+00
1.2042578363e+00
1.2042664790e+00
1.2042741042e+00
1.2042808122e+00
1.2042866957e+00
1.2042918397e+00
1.2042963217e+00
1.2043002122e+00
1.2043035750e+00
1.2043064676e+00
1.2043089419e+00
1.2043110443e+00
1.2043128164e+00
1.2043142954e+00
1.2043155145e+00
1.2043165037e+00
1.2043172893e+00
1.2043178954e+00
1.2043183432e+00
1.2043186521e+00
1.2043188394e+00
1.2043189208e+00
1.2043189106e+00
1.2043188217e+00
1.2043186661e+00
1.2043184544e+00
1.2043181967e+00
1.2043179021e+00
1.2043175790e+00
1.2043172350e+00
1.2043168771e+00
1.2043165119e+00
1.2043161453e+00
1.2043157825e+00
1.2043154287e+00
1.2043150882e+00
1.2043147651e+00
1.2043144635e+00
1.2043141867e+00
1.2043139383e+00
1.2043137215e+00
1.2043135399e+00
1.2043133968e+00
1.2043132956e+00
1.2043132394e+00
1.2043132307e+00
1.2043132703e+00
1.2043133550e+00
1.2043121968e+00
1.2016403209e+00
1.2016526783e+00
1.2016679290e+00
1.2016906311e+00
1.2017206107e+00
1.2017576228e+00
1.2018013592e+00
1.2018514559e+00
1.2019074998e+00
1.2019690352e+00
1.2020355705e+00
1.2021065847e+00
1.2021815347e+00
1.2022598614e+00
1.2023409975e+00
1.2024243733e+00
1.2025094239e+00
1.2025955947e+00
1.2026823479e+00
1.2027691670e+00
1.2028555622e+00
1.2029410737e+00
1.2030252760e+00
1.2031077802e+00
1.2031882361e+00
1.2032663337e+00
1.2033418044e+00
1.2034144203e+00
1.2034839948e+00
1.2035503804e+00
1.2036134689e+00
1.2036731876e+00
1.2037294990e+00
1.2037823966e+00
1.2038319034e+00
1.2038780682e+00
1.2039209632e+00
1.2039606803e+00
1.2039973287e+00
1.2040310313e+00
1.2040619225e+00
1.2040901448e+00
1.2041158469e+00
1.2041391806e+00
1.2041602997e+00
1.2041793568e+00
1.2041965027e+00
1.2042118845e+00
1.2042256445e+00
1.2042379190e+00
1.2042488378e+00
1.2042585236e+00
1.2042670916e+00
1.2042746491e+00
1.2042812958e+00
1.2042871234e+00
1.2042922163e+00
1.2042966514e+00
1.2043004986e+00
1.2043038214e+00
1.2043066771e+00
1.2043091170e+00
1.2043111874e+00
1.2043129299e+00
1.2043143815e+00
1.2043155754e+00
1.2043165414e+00
1.2043173059e+00
1.2043178928e+00
1.2043183235e+00
1.2043186172e+00
1.2043187912e+00
1.2043188611e+00
1.2043188412e+00
1.2043187443e+00
1.2043185821e+00
1.2043183653e+00
1.2043181038e+00
1.2043178065e+00
1.2043174815e+00
1.2043171364e+00
1.2043167781e+00
1.2043164128e+00
1.2043160463e+00
1.2043156838e+00
1.2043153303e+00
1.2043149899e+00
1.2043146668e+00
1.2043143646e+00
1.2043140869e+00
1.2043138367e+00
1.2043136173e+00
1.2043134314e+00
1.2043132817e+00
1.2043131708e+00
1.2043131004e+00
1.2043130714e+00
1.2043130828e+00
1.2043131306e+00
1.2043118380e+00
1.2016705455e+00
1.2016829644e+00
1.2016981096e+00
1.2017206107e+00
1.2017502931e+00
1.2017869155e+00
1.2018301750e+00
1.2018797141e+00
1.2019351261e+00
1.2019959625e+00
1.2020617380e+00
1.2021319391e+00
1.2022060290e+00
1.2022834562e+00
1.2023636596e+00
1.2024460769e+00
1.2025301494e+00
1.2026153297e+00
1.2027010856e+00
1.2027869071e+00
1.2028723098e+00
1.2029568396e+00
1.2030400756e+00
1.2031216336e+00
1.2032011673e+00
1.2032783707e+00
1.2033529778e+00
1.2034247637e+00
1.2034935435e+00
1.2035591722e+00
1.2036215419e+00
1.2036805816e+00
1.2037362536e+00
1.2037885518e+00
1.2038374988e+00
1.2038831429e+00
1.2039255551e+00
1.2039648265e+00
1.2040010648e+00
1.2040343915e+00
1.2040649392e+00
1.2040928488e+00
1.2041182669e+00
1.2041413438e+00
1.2041622308e+00
1.2041810791e+00
1.2041980374e+00
1.2042132509e+00
1.2042268601e+00
1.2042389996e+00
1.2042497976e+00
1.2042593753e+00
1.2042678464e+00
1.2042753170e+00
1.2042818854e+00
1.2042876425e+00
1.2042926715e+00
1.2042970487e+00
1.2043008433e+00
1.2043041181e+00
1.2043069297e+00
1.2043093294e+00
1.2043113629e+00
1.2043130715e+00
1.2043144921e+00
1.2043156576e+00
1.2043165978e+00
1.2043173389e+00
1.2043179048e+00
1.2043183167e+00
1.2043185938e+00
1.2043187533e+00
1.2043188107e+00
1.2043187800e+00
1.2043186742e+00
1.2043185047e+00
1.2043182821e+00
1.2043180160e+00
1.2043177153e+00
1.2043173879e+00
1.2043170411e+00
1.2043166817e+00
1.2043163158e+00
1.2043159490e+00
1.2043155863e+00
1.2043152325e+00
1.2043148917e+00
1.2043145678e+00
1.2043142645e+00
1.2043139849e+00
1.2043137320e+00
1.2043135086e+00
1.2043133173e+00
1.2043131601e+00
1.2043130388e+00
1.2043129544e+00
1.2043129070e+00
1.2043128952e+00
1.2043129152e+00
1.2043115066e+00
1.2017080377e+00
1.2017204311e+00
1.2017354027e+00
1.2017576228e+00
1.2017869155e+00
1.2018230416e+00
1.2018657034e+00
1.2019145489e+00
1.2019691788e+00
1.2020291514e+00
1.2020939899e+00
1.2021631882e+00
1.2022362185e+00
1.2023125368e+00
1.2023915912e+00
1.2024728271e+00
1.2025556947e+00
1.2026396537e+00
1.2027241805e+00
1.2028087720e+00
1.2028929512e+00
1.2029762702e+00
1.2030583147e+00
1.2031387054e+00
1.2032171018e+00
1.2032932015e+00
1.2033667430e+00
1.2034375043e+00
1.2035053035e+00
1.2035699972e+00
1.2036314797e+00
1.2036896804e+00
1.2037445626e+00
1.2037961200e+00
1.2038443751e+00
1.2038893751e+00
1.2039311904e+00
1.2039699104e+00
1.2040056412e+00
1.2040385025e+00
1.2040686250e+00
1.2040961473e+00
1.2041212138e+00
1.2041439725e+00
1.2041645724e+00
1.2041831622e+00
1.2041998884e+00
1.2042148939e+00
1.2042283171e+00
1.2042402903e+00
1.2042509399e+00
1.2042603852e+00
1.2042687380e+00
1.2042761030e+00
1.2042825769e+00
1.2042882494e+00
1.2042932024e+00
1.2042975112e+00
1.2043012441e+00
1.2043044630e+00
1.2043072240e+00
1.2043095777e+00
1.2043115695e+00
1.2043132401e+00
1.2043146262e+00
1.2043157604e+00
1.2043166722e+00
1.2043173879e+00
1.2043179309e+00
1.2043183225e+00
1.2043185816e+00
1.2043187254e+00
1.2043187692e+00
1.2043187270e+00
1.2043186114e+00
1.2043184338e+00
1.2043182047e+00
1.2043179335e+00
1.2043176287e+00
1.2043172983e+00
1.2043169494e+00
1.2043165884e+00
1.2043162214e+00
1.2043158537e+00
1.2043154903e+00
1.2043151357e+00
1.2043147939e+00
1.2043144688e+00
1.2043141636e+00
1.2043138814e+00
1.2043136251e+00
1.2043133972e+00
1.2043131997e+00
1.2043130346e+00
1.2043129030e+00
1.2043128056e+00
1.2043127422e+00
1.2043127113e+00
1.2043127100e+00
1.2043111987e+00
1.2017524472e+00
1.2017647515e+00
1.2017794926e+00
1.2018013592e+00
1.2018301750e+00
1.2018657034e+00
1.2019076509e+00
1.2019556723e+00
1.2020093751e+00
1.2020683263e+00
1.2021320573e+00
1.2022000717e+00
1.2022718506e+00
1.2023468605e+00
1.2024245584e+00
1.2025044003e+00
1.2025858452e+00
1.2026683631e+00
1.2027514389e+00
1.2028345786e+00
1.2029173132e+00
1.2029992029e+00
1.2030798401e+00
1.2031588528e+00
1.2032359056e+00
1.2033107021e+00
1.2033829847e+00
1.2034525358e+00
1.2035191762e+00
1.2035827653e+00
1.2036431990e+00
1.2037004083e+00
1.2037543567e+00
1.2038050383e+00
1.2038524749e+00
1.2038967134e+00
1.2039378224e+00
1.2039758899e+00
1.2040110202e+00
1.2040433308e+00
1.2040729498e+00
1.2041000136e+00
1.2041246638e+00
1.2041470457e+00
1.2041673056e+00
1.2041855895e+00
1.2042020412e+00
1.2042168008e+00
1.2042300041e+00
1.2042417813e+00
1.2042522561e+00
1.2042615457e+00
1.2042697600e+00
1.2042770015e+00
1.2042833655e+00
1.2042889398e+00
1.2042938053e+00
1.2042980356e+00
1.2043016981e+00
1.2043048538e+00
1.2043075579e+00
1.2043098603e+00
1.2043118057e+00
1.2043134344e+00
1.2043147827e+00
1.2043158828e+00
1.2043167640e+00
1.2043174521e+00
1.2043179705e+00
1.2043183403e+00
1.2043185802e+00
1.2043187071e+00
1.2043187364e+00
1.2043186818e+00
1.2043185557e+00
1.2043183694e+00
1.2043181331e+00
1.2043178562e+00
1.2043175469e+00
1.2043172129e+00
1.2043168613e+00
1.2043164983e+00
1.2043161297e+00
1.2043157608e+00
1.2043153962e+00
1.2043150403e+00
1.2043146972e+00
1.2043143702e+00
1.2043140627e+00
1.2043137776e+00
1.2043135174e+00
1.2043132845e+00
1.2043130807e+00
1.2043129076e+00
1.2043127663e+00
1.2043126571e+00
1.2043125799e+00
1.2043125333e+00
1.2043125154e+00
1.2043109113e+00
1.2018033791e+00
1.2018155458e+00
1.2018300080e+00
1.2018514559e+00
1.2018797141e+00
1.2019145489e+00
1.2019556723e+00
1.2020027454e+00
1.2020553841e+00
1.2021131637e+00
1.2021756260e+00
1.2022422843e+00
1.2023126309e+00
1.2023861426e+00
1.2024622884e+00
1.2025405343e+00
1.2026203514e+00
1.2027012196e+00
1.2027826348e+00
1.2028641126e+00
1.2029451938e+00
1.2030254471e+00
1.2031044736e+00
1.2031819084e+00
1.2032574232e+00
1.2033307272e+00
1.2034015686e+00
1.2034697334e+00
1.2035350469e+00
1.2035973707e+00
1.2036566032e+00
1.2037126764e+00
1.2037655550e+00
1.2038152330e+00
1.2038617319e+00
1.2039050972e+00
1.2039453967e+00
1.2039827162e+00
1.2040171579e+00
1.2040488368e+00
1.2040778785e+00
1.2041044163e+00
1.2041285891e+00
1.2041505388e+00
1.2041704089e+00
1.2041883419e+00
1.2042044788e+00
1.2042189567e+00
1.2042319084e+00
1.2042434612e+00
1.2042537363e+00
1.2042628483e+00
1.2042709048e+00
1.2042780061e+00
1.2042842454e+00
1.2042897090e+00
1.2042944758e+00
1.2042986182e+00
1.2043022023e+00
1.2043052878e+00
1.2043079290e+00
1.2043101750e+00
1.2043120697e+00
1.2043136530e+00
1.2043149603e+00
1.2043160237e+00
1.2043168719e+00
1.2043175307e+00
1.2043180229e+00
1.2043183695e+00
1.2043185890e+00
1.2043186982e+00
1.2043187120e+00
1.2043186442e+00
1.2043185069e+00
1.2043183113e+00
1.2043180673e+00
1.2043177841e+00
1.2043174698e+00
1.2043171319e+00
1.2043167772e+00
1.2043164117e+00
1.2043160412e+00
1.2043156705e+00
1.2043153044e+00
1.2043149470e+00
1.2043146020e+00
1.2043142729e+00
1.2043139628e+00
1.2043136743e+00
1.2043134100e+00
1.2043131719e+00
1.2043129619e+00
1.2043127812e+00
1.2043126308e+00
1.2043125111e+00
1.2043124220e+00
1.2043123626e+00
1.2043123313e+00
1.2043106427e+00
1.2018603967e+00
1.2018723879e+00
1.2018865292e+00
1.2019074998e+00
1.2019351261e+00
1.2019691788e+00
1.2020093751e+00
1.2020553841e+00
1.2021068297e+00
1.2021632977e+00
1.2022243397e+00
1.2022894811e+00
1.2023582253e+00
1.2024300621e+00
1.2025044718e+00
1.2025809337e+00
1.2026589303e+00
1.2027379543e+00
1.2028175124e+00
1.2028971322e+00
1.2029763643e+00
1.2030547881e+00
1.2031320131e+00
1.2032076835e+00
1.2032814781e+00
1.2033531131e+00
1.2034223421e+00
1.2034889568e+00
1.2035527855e+00
1.2036136941e+00
1.2036715824e+00
1.2037263848e+00
1.2037780662e+00
1.2038266212e+00
1.2038720704e+00
1.2039144587e+00
1.2039538518e+00
1.2039903340e+00
1.2040240046e+00
1.2040549763e+00
1.2040833715e+00
1.2041093204e+00
1.2041329583e+00
1.2041544241e+00
1.2041738575e+00
1.2041913979e+00
1.2042071824e+00
1.2042213450e+00
1.2042340152e+00
1.2042453173e+00
1.2042553694e+00
1.2042642832e+00
1.2042721639e+00
1.2042791093e+00
1.2042852104e+00
1.2042905513e+00
1.2042952093e+00
1.2042992550e+00
1.2043027530e+00
1.2043057618e+00
1.2043083347e+00
1.2043105195e+00
1.2043123596e+00
1.2043138940e+00
1.2043151575e+00
1.2043161818e+00
1.2043169951e+00
1.2043176227e+00
1.2043180873e+00
1.2043184095e+00
1.2043186075e+00
1.2043186979e+00
1.2043186956e+00
1.2043186139e+00
1.2043184648e+00
1.2043182593e+00
1.2043180071e+00
1.2043177172e+00
1.2043173975e+00
1.2043170552e+00
1.2043166971e+00
1.2043163288e+00
1.2043159560e+00
1.2043155834e+00
1.2043152155e+00
1.2043148561e+00
1.2043145091e+00
1.2043141776e+00
1.2043138646e+00
1.2043135726e+00
1.2043133041e+00
1.2043130609e+00
1.2043128447e+00
1.2043126569e+00
1.2043124982e+00
1.2043123692e+00
1.2043122699e+00
1.2043121997e+00
1.2043121577e+00
1.2043103912e+00
1.2019230257e+00
1.2019348107e+00
1.2019485945e+00
1.2019690352e+00
1.2019959625e+00
1.2020291514e+00
1.2020683263e+00
1.2021131637e+00
1.2021632977e+00
1.2022183238e+00
1.2022778061e+00
1.2023412814e+00
1.2024082667e+00
1.2024782642e+00
1.2025507687e+00
1.2026252721e+00
1.2027012709e+00
1.2027782702e+00
1.2028557905e+00
1.2029333706e+00
1.2030105735e+00
1.2030869887e+00
1.2031622367e+00
1.2032359699e+00
1.2033078764e+00
1.2033776790e+00
1.2034451382e+00
1.2035100505e+00
1.2035722496e+00
1.2036316038e+00
1.2036880165e+00
1.2037414231e+00
1.2037917900e+00
1.2038391113e+00
1.2038834078e+00
1.2039247227e+00
1.2039631203e+00
1.2039986823e+00
1.2040315060e+00
1.2040617005e+00
1.2040893853e+00
1.2041146869e+00
1.2041377373e+00
1.2041586712e+00
1.2041776248e+00
1.2041947336e+00
1.2042101310e+00
1.2042239474e+00
1.2042363086e+00
1.2042473355e+00
1.2042571431e+00
1.2042658399e+00
1.2042735282e+00
1.2042803032e+00
1.2042862535e+00
1.2042914608e+00
1.2042960005e+00
1.2042999413e+00
1.2043033463e+00
1.2043062726e+00
1.2043087720e+00
1.2043108914e+00
1.2043126732e+00
1.2043141555e+00
1.2043153728e+00
1.2043163557e+00
1.2043171322e+00
1.2043177271e+00
1.2043181628e+00
1.2043184594e+00
1.2043186350e+00
1.2043187059e+00
1.2043186867e+00
1.2043185904e+00
1.2043184291e+00
1.2043182132e+00
1.2043179524e+00
1.2043176554e+00
1.2043173299e+00
1.2043169831e+00
1.2043166211e+00
1.2043162499e+00
1.2043158745e+00
1.2043154998e+00
1.2043151298e+00
1.2043147684e+00
1.2043144191e+00
1.2043140851e+00
1.2043137691e+00
1.2043134736e+00
1.2043132008e+00
1.2043129526e+00
1.2043127306e+00
1.2043125361e+00
1.2043123699e+00
1.2043122326e+00
1.2043121244e+00
1.2043120451e+00
1.2043119942e+00
1.2043101556e+00
1.2019907582e+00
1.2020023121e+00
1.2020157063e+00
1.2020355705e+00
1.2020617380e+00
1.2020939899e+00
1.2021320573e+00
1.2021756260e+00
1.2022243397e+00
1.2022778061e+00
1.2023356008e+00
1.2023972747e+00
1.2024623577e+00
1.2025303672e+00
1.2026008115e+00
1.2026731980e+00
1.2027470368e+00
1.2028218480e+00
1.2028971650e+00
1.2029725405e+00
1.2030475494e+00
1.2031217937e+00
1.2031949041e+00
1.2032665436e+00
1.2033364084e+00
1.2034042302e+00
1.2034697757e+00
1.2035328479e+00
1.2035932844e+00
1.2036509583e+00
1.2037057751e+00
1.2037576725e+00
1.2038066175e+00
1.2038526050e+00
1.2038956545e+00
1.2039358085e+00
1.2039731291e+00
1.2040076960e+00
1.2040396032e+00
1.2040689570e+00
1.2040958731e+00
1.2041204744e+00
1.2041428889e+00
1.2041632474e+00
1.2041816818e+00
1.2041983237e+00
1.2042133024e+00
1.2042267443e+00
1.2042387715e+00
1.2042495010e+00
1.2042590444e+00
1.2042675070e+00
1.2042749878e+00
1.2042815792e+00
1.2042873672e+00
1.2042924311e+00
1.2042968439e+00
1.2043006726e+00
1.2043039782e+00
1.2043068165e+00
1.2043092378e+00
1.2043112880e+00
1.2043130082e+00
1.2043144358e+00
1.2043156043e+00
1.2043165439e+00
1.2043172819e+00
1.2043178427e+00
1.2043182483e+00
1.2043185184e+00
1.2043186708e+00
1.2043187215e+00
1.2043186847e+00
1.2043185735e+00
1.2043183994e+00
1.2043181727e+00
1.2043179030e+00
1.2043175987e+00
1.2043172672e+00
1.2043169154e+00
1.2043165496e+00
1.2043161751e+00
1.2043157971e+00
1.2043154200e+00
1.2043150478e+00
1.2043146843e+00
1.2043143327e+00
1.2043139960e+00
1.2043136770e+00
1.2043133780e+00
1.2043131011e+00
1.2043128481e+00
1.2043126207e+00
1.2043124199e+00
1.2043122469e+00
1.2043121022e+00
1.2043119862e+00
1.2043118991e+00
1.2043118406e+00
1.2043099349e+00
1.2020630594e+00
1.2020743615e+00
1.2020873382e+00
1.2021065847e+00
1.2021319391e+00
1.2021631882e+00
1.2022000717e+00
1.2022422843e+00
1.2022894811e+00
1.2023412814e+00
1.2023972747e+00
1.2024570249e+00
1.2025200780e+00
1.2025859652e+00
1.2026542113e+00
1.2027243382e+00
1.2027958724e+00
1.2028683481e+00
1.2029413142e+00
1.2030143368e+00
1.2030870049e+00
1.2031589321e+00
1.2032297616e+00
1.2032991663e+00
1.2033668527e+00
1.2034325602e+00
1.2034960636e+00
1.2035571714e+00
1.2036157271e+00
1.2036716072e+00
1.2037247207e+00
1.2037750070e+00
1.2038224344e+00
1.2038669976e+00
1.2039087160e+00
1.2039476304e+00
1.2039838013e+00
1.2040173054e+00
1.2040482341e+00
1.2040766900e+00
1.2041027853e+00
1.2041266387e+00
1.2041483741e+00
1.2041681180e+00
1.2041859981e+00
1.2042021413e+00
1.2042166730e+00
1.2042297151e+00
1.2042413857e+00
1.2042517979e+00
1.2042610596e+00
1.2042692725e+00
1.2042765323e+00
1.2042829284e+00
1.2042885439e+00
1.2042934554e+00
1.2042977338e+00
1.2043014437e+00
1.2043046444e+00
1.2043073899e+00
1.2043097291e+00
1.2043117065e+00
1.2043133622e+00
1.2043147326e+00
1.2043158503e+00
1.2043167449e+00
1.2043174430e+00
1.2043179685e+00
1.2043183430e+00
1.2043185857e+00
1.2043187142e+00
1.2043187440e+00