# vtk DataFile Version 2.0
Blank
ASCII
DATASET STRUCTURED_GRID
DIMENSIONS 101 101 2
POINTS 20402 float
0.0000000000e+00 0.0000000000e+00 0.0000000000e+00
1.0000000000e-02 0.0000000000e+00 0.0000000000e+00
2.0000000000e-02 0.0000000000e+00 0.0000000000e+00
3.0000000000e-02 0.0000000000e+00 0.0000000000e+00
4.0000000000e-02 0.0000000000e+00 0.0000000000e+00
5.0000000000e-02 0.0000000000e+00 0.0000000000e+00
6.0000000000e-02 0.0000000000e+00 0.0000000000e+00
7.0000000000e-02 0.0000000000e+00 0.0000000000e+00
8.0000000000e-02 0.0000000000e+00 0.0000000000e+00
9.0000000000e-02 0.0000000000e+00 0.0000000000e+00
1.0000000000e-01 0.0000000000e+00 0.0000000000e+00
1.1000000000e-01 0.0000000000e+00 0.0000000000e+00
1.2000000000e-01 0.0000000000e+00 0.0000000000e+00
1.3000000000e-01 0.0000000000e+00 0.0000000000e+00
1.4000000000e-01 0.0000000000e+00 0.0000000000e+00
1.5000000000e-01 0.0000000000e+00 0.0000000000e+00
1.6000000000e-01 0.0000000000e+00 0.0000000000e+00
1.7000000000e-01 0.0000000000e+00 0.0000000000e+00
1.8000000000e-01 0.0000000000e+00 0.0000000000e+00
1.9000000000e-01 0.0000000000e+00 0.0000000000e+00
2.0000000000e-01 0.0000000000e+00 0.0000000000e+00
2.1000000000e-01 0.0000000000e+00 0.0000000000e+00
2.2000000000e-01 0.0000000000e+00 0.0000000000e+00
2.3000000000e-01 0.0000000000e+00 0.0000000000e+00
2.4000000000e-01 0.0000000000e+00 0.0000000000e+00
2.5000000000e-01 0.0000000000e+00 0.0000000000e+00
2.6000000000e-01 0.0000000000e+00 0.0000000000e+00
2.7000000000e-01 0.0000000000e+00 0.0000000000e+00
2.8000000000e-01 0.0000000000e+00 0.0000000000e+00
2.9000000000e-01 0.0000000000e+00 0.0000000000e+00
3.0000000000e-01 0.0000000000e+00 0.0000000000e+00
3.1000000000e-01 0.0000000000e+00 0.0000000000e+00
3.2000000000e-01 0.0000000000e+00 0.0000000000e+00
3.3000000000e-01 0.0000000000e+00 0.0000000000e+00
3.4000000000e-01 0.0000000000e+00 0.0000000000e+00
3.5000000000e-01 0.0000000000e+00 0.0000000000e+00
3.6000000000e-01 0.0000000000e+00 0.0000000000e+00
3.7000000000e-01 0.0000000000e+00 0.0000000000e+00
3.8000000000e-01 0.0000000000e+00 0.0000000000e+00
3.9000000000e-01 0.0000000000e+00 0.0000000000e+00
4.0000000000e-01 0.0000000000e+00 0.0000000000e+00
4.1000000000e-01 0.0000000000e+00 0.0000000000e+00
4.2000000000e-01 0.0000000000e+00 0.0000000000e+00
4.3000000000e-01 0.0000000000e+00 0.0000000000e+00
4.4000000000e-01 0.0000000000e+00 0.0000000000e+00
4.5000000000e-01 0.0000000000e+00 0.0000000000e+00
4.6000000000e-01 0.0000000000e+00 0.0000000000e+00
4.7000000000e-01 0.0000000000e+00 0.0000000000e+00
4.8000000000e-01 0.0000000000e+00 0.0000000000e+00
4.9000000000e-01 0.0000000000e+00 0.0000000000e+00
5.0000000000e-01 0.0000000000e+00 0.0000000000e+00
5.1000000000e-01 0.0000000000e+00 0.0000000000e+00
5.2000000000e-01 0.0000000000e+00 0.0000000000e+00
5.3000000000e-01 0.0000000000e+00 0.0000000000e+00
5.4000000000e-01 0.0000000000e+00 0.0000000000e+00
5.5000000000e-01 0.0000000000e+00 0.0000000000e+00
5.6000000000e-01 0.0000000000e+00 0.0000000000e+00
5.7000000000e-01 0.0000000000e+00 0.0000000000e+00
5.8000000000e-01 0.0000000000e+00 0.0000000000e+00
5.9000000000e-01 0.0000000000e+00 0.0000000000e+00
6.0000000000e-01 0.0000000000e+00 0.0000000000e+00
6.1000000000e-01 0.0000000000e+00 0.0000000000e+00
6.2000000000e-01 0.0000000000e+00 0.0000000000e+00
6.3000000000e-01 0.0000000000e+00 0.0000000000e+00
6.4000000000e-01 0.0000000000e+00 0.0000000000e+00
6.5000000000e-01 0.0000000000e+00 0.0000000000e+00
6.6000000000e-01 0.0000000000e+00 0.0000000000e+00
6.7000000000e-01 0.0000000000e+00 0.0000000000e+00
6.8000000000e-01 0.0000000000e+00 0.0000000000e+00
6.9000000000e-01 0.0000000000e+00 0.0000000000e+00
7.0000000000e-01 0.0000000000e+00 0.0000000000e+00
7.1000000000e-01 0.0000000000e+00 0.0000000000e+00
7.2000000000e-01 0.0000000000e+00 0.0000000000e+00
7.3000000000e-01 0.0000000000e+00 0.0000000000e+00
7.4000000000e-01 0.0000000000e+00 0.0000000000e+00
7.5000000000e-01 0.0000000000e+00 0.0000000000e+00
7.6000000000e-01 0.0000000000e+00 0.0000000000e+00
7.7000000000e-01 0.0000000000e+00 0.0000000000e+00
7.8000000000e-01 0.0000000000e+00 0.0000000000e+00
7.9000000000e-01 0.0000000000e+00 0.0000000000e+00
8.0000000000e-01 0.0000000000e+00 0.0000000000e+00
8.1000000000e-01 0.0000000000e+00 0.0000000000e+00
8.2000000000e-01 0.0000000000e+00 0.0000000000e+00
8.3000000000e-01 0.0000000000e+00 0.0000000000e+00
8.4000000000e-01 0.0000000000e+00 0.0000000000e+00
8.5000000000e-01 0.0000000000e+00 0.0000000000e+00
8.6000000000e-01 0.0000000000e+00 0.0000000000e+00
8.7000000000e-01 0.0000000000e+00 0.0000000000e+00
8.8000000000e-01 0.0000000000e+00 0.0000000000e+00
8.9000000000e-01 0.0000000000e+00 0.0000000000e+00
9.0000000000e-01 0.0000000000e+00 0.0000000000e+00
9.1000000000e-01 0.0000000000e+00 0.0000000000e+00
9.2000000000e-01 0.0000000000e+00 0.0000000000e+00
9.3000000000e-01 0.0000000000e+00 0.0000000000e+00
9.4000000000e-01 0.0000000000e+00 0.0000000000e+00
9.5000000000e-01 0.0000000000e+00 0.0000000000e+00
9.6000000000e-01 0.0000000000e+00 0.0000000000e+00
9.7000000000e-01 0.0000000000e+00 0.0000000000e+00
9.8000000000e-01 0.0000000000e+00 0.0000000000e+00
9.9000000000e-01 0.0000000000e+00 0.0000000000e+00
1.0000000000e+00 0.0000000000e+00 0.0000000000e+00
0.0000000000e+00 1.0000000000e-02 0.0000000000e+00
1.0000000000e-02 1.0000000000e-02 0.0000000000e+00
2.0000000000e-02 1.0000000000e-02 0.0000000000e+00
3.0000000000e-02 1.0000000000e-02 0.0000000000e+00
4.0000000000e-02 1.0000000000e-02 0.0000000000e+00
5.0000000000e-02 1.0000000000e-02 0.0000000000e+00
6.0000000000e-02 1.0000000000e-02 0.0000000000e+00
7.0000000000e-02 1.0000000000e-02 0.0000000000e+00
8.0000000000e-02 1.0000000000e-02 0.0000000000e+00
9.0000000000e-02 1.0000000000e-02 0.0000000000e+00
1.0000000000e-01 1.0000000000e-02 0.0000000000e+00
1.1000000000e-01 1.0000000000e-02 0.0000000000e+00
1.2000000000e-01 1.0000000000e-02 0.0000000000e+00
1.3000000000e-01 1.0000000000e-02 0.0000000000e+00
1.4000000000e-01 1.0000000000e-02 0.0000000000e+00
1.5000000000e-01 1.0000000000e-02 0.0000000000e+00
1.6000000000e-01 1.0000000000e-02 0.0000000000e+00
1.7000000000e-01 1.0000000000e-02 0.0000000000e+00
1.8000000000e-01 1.0000000000e-02 0.0000000000e+00
1.9000000000e-01 1.0000000000e-02 0.0000000000e+00
2.0000000000e-01 1.0000000000e-02 0.0000000000e+00
2.1000000000e-01 1.0000000000e-02 0.0000000000e+00
2.2000000000e-01 1.0000000000e-02 0.0000000000e+00
2.3000000000e-01 1.0000000000e-02 0.0000000000e+00
2.4000000000e-01 1.0000000000e-02 0.0000000000e+00
2.5000000000e-01 1.0000000000e-02 0.0000000000e+00
2.6000000000e-01 1.0000000000e-02 0.0000000000e+00
2.7000000000e-01 1.0000000000e-02 0.0000000000e+00
2.8000000000e-01 1.0000000000e-02 0.0000000000e+00
2.9000000000e-01 1.0000000000e-02 0.0000000000e+00
3.0000000000e-01 1.0000000000e-02 0.0000000000e+00
3.1000000000e-01 1.0000000000e-02 0.0000000000e+00
3.2000000000e-01 1.0000000000e-02 0.0000000000e+00
3.3000000000e-01 1.0000000000e-02 0.0000000000e+00
3.4000000000e-01 1.0000000000e-02 0.0000000000e+00
3.5000000000e-01 1.0000000000e-02 0.0000000000e+00
3.6000000000e-01 1.0000000000e-02 0.0000000000e+00
3.7000000000e-01 1.0000000000e-02 0.0000000000e+00
3.8000000000e-01 1.0000000000e-02 0.0000000000e+00
3.9000000000e-01 1.0000000000e-02 0.0000000000e+00
4.0000000000e-01 1.0000000000e-02 0.0000000000e+00
4.1000000000e-01 1.0000000000e-02 0.0000000000e+00
4.2000000000e-01 1.0000000000e-02 0.0000000000e+00
4.3000000000e-01 1.0000000000e-02 0.0000000000e+00
4.4000000000e-01 1.0000000000e-02 0.0000000000e+00
4.5000000000e-01 1.0000000000e-02 0.0000000000e+00
4.6000000000e-01 1.0000000000e-02 0.0000000000e+00
4.7000000000e-01 1.0000000000e-02 0.0000000000e+00
4.8000000000e-01 1.0000000000e-02 0.0000000000e+00
4.9000000000e-01 1.0000000000e-02 0.0000000000e+00
5.0000000000e-01 1.0000000000e-02 0.0000000000e+00
5.1000000000e-01 1.0000000000e-02 0.0000000000e+00
5.2000000000e-01 1.0000000000e-02 0.0000000000e+00
5.3000000000e-01 1.0000000000e-02 0.0000000000e+00
5.4000000000e-01 1.0000000000e-02 0.0000000000e+00
5.5000000000e-01 1.0000000000e-02 0.0000000000e+00
5.6000000000e-01 1.0000000000e-02 0.0000000000e+00
5.7000000000e-01 1.0000000000e-02 0.0000000000e+00
5.8000000000e-01 1.0000000000e-02 0.0000000000e+00
5.9000000000e-01 1.0000000000e-02 0.0000000000e+00
6.0000000000e-01 1.0000000000e-02 0.0000000000e+00
6.1000000000e-01 1.0000000000e-02 0.0000000000e+00
6.2000000000e-01 1.0000000000e-02 0.0000000000e+00
6.3000000000e-01 1.0000000000e-02 0.0000000000e+00
6.4000000000e-01 1.0000000000e-02 0.0000000000e+00
6.5000000000e-01 1.0000000000e-02 0.0000000000e+00
6.6000000000e-01 1.0000000000e-02 0.0000000000e+00
6.7000000000e-01 1.0000000000e-02 0.0000000000e+00
6.8000000000e-01 1.0000000000e-02 0.0000000000e+00
6.9000000000e-01 1.0000000000e-02 0.0000000000e+00
7.0000000000e-01 1.0000000000e-02 0.0000000000e+00
7.1000000000e-01 1.0000000000e-02 0.0000000000e+00
7.2000000000e-01 1.0000000000e-02 0.0000000000e+00
7.3000000000e-01 1.0000000000e-02 0.0000000000e+00
7.4000000000e-01 1.0000000000e-02 0.0000000000e+00
7.5000000000e-01 1.0000000000e-02 0.0000000000e+00
7.6000000000e-01 1.0000000000e-02 0.0000000000e+00
7.7000000000e-01 1.0000000000e-02 0.0000000000e+00
7.8000000000e-01 1.0000000000e-02 0.0000000000e+00
7.9000000000e-01 1.0000000000e-02 0.0000000000e+00
8.0000000000e-01 1.0000000000e-02 0.0000000000e+00
8.1000000000e-01 1.0000000000e-02 0.0000000000e+00
8.2000000000e-01 1.0000000000e-02 0.0000000000e+00
8.3000000000e-01 1.0000000000e-02 0.0000000000e+00
8.4000000000e-01 1.0000000000e-02 0.0000000000e+00
8.5000000000e-01 1.0000000000e-02 0.0000000000e+00
8.6000000000e-01 1.0000000000e-02 0.0000000000e+00
8.7000000000e-01 1.0000000000e-02 0.0000000000e+00
8.8000000000e-01 1.0000000000e-02 0.0000000000e+00
8.9000000000e-01 1.0000000000e-02 0.0000000000e+00
9.0000000000e-01 1.0000000000e-02 0.0000000000e+00
9.1000000000e-01 1.0000000000e-02 0.0000000000e+00
9.2000000000e-01 1.0000000000e-02 0.0000000000e+00
[...]
CELL_DATA 10000

SCALARS massDensity float
LOOKUP_TABLE default
1.1711994518e+00
1.1725744169e+00
1.1744360653e+00
1.1770511164e+00
1.1801863561e+00
1.1835865041e+00
1.1870085854e+00
1.1902464288e+00
1.1931505204e+00
1.1956330122e+00
1.1976661304e+00
1.1992698354e+00
1.2004980994e+00
1.2014226590e+00
1.2021207211e+00
1.2026650800e+00
1.2031190008e+00
1.2035335664e+00
1.2039472821e+00
1.2043862382e+00
1.2048639487e+00
1.2053808523e+00
1.2059231726e+00
1.2064630995e+00
1.2069603040e+00
1.2073675129e+00
1.2076381961e+00
1.2077376241e+00
1.2076514668e+00
1.2073924247e+00
1.2069979214e+00
1.2065236270e+00
1.2060296695e+00
1.2055693084e+00
1.2051786190e+00
1.2048743871e+00
1.2046556616e+00
1.2045101587e+00
1.2044203590e+00
1.2043689265e+00
1.2043415652e+00
1.2043280530e+00
1.2043218610e+00
1.2043192306e+00
1.2043181964e+00
1.2043178205e+00
1.2043176945e+00
1.2043176557e+00
1.2043176447e+00
1.2043176418e+00
1.2043176412e+00
1.2043176410e+00
1.2043176410e+00
1.2043176410e+00
1.2043176410e+00
1.2043176410e+00
1.2043176410e+00
1.2043176410e+00
1.2043176410e+00
1.2043176410e+00
1.2043176410e+00
1.2043176410e+00
1.2043176410e+00
1.2043176410e+00
1.2043176410e+00
1.2043176410e+00
1.2043176410e+00
1.2043176410e+00
1.2043176410e+00
1.2043176410e+00
1.2043176410e+00
1.2043176410e+00
1.2043176410e+00
1.2043176410e+00
1.2043176410e+00
1.2043176410e+00
1.2043176410e+00
1.2043176410e+00
1.2043176410e+00
1.2043176410e+00
1.2043176410e+00
1.2043176410e+00
1.2043176410e+00
1.2043176410e+00
1.2043176410e+00
1.2043176410e+00
1.2043176410e+00
1.2043176410e+00
1.2043176410e+00
1.2043176410e+00
1.2043176410e+00
1.2043176410e+00
1.2043176410e+00
1.2043176410e+00
1.2043176410e+00
1.2043176410e+00
1.2043176410e+00
1.2043176410e+00
1.2043176410e+00
1.2043176410e+00
1.1725744169e+00
1.1739951142e+00
1.1758366362e+00
1.1783940856e+00
1.1814451158e+00
1.1847464761e+00
1.1880620906e+00
1.1911939237e+00
1.1939956876e+00
1.1963832827e+00
1.1983284661e+00
1.1998507229e+00
1.2010005603e+00
1.2018462532e+00
1.2024599995e+00
1.2029100394e+00
1.2032550835e+00
1.2035431439e+00
1.2038117060e+00
1.2040890926e+00
1.2043953085e+00
1.2047416662e+00
1.2051294331e+00
1.2055475218e+00
1.2059715635e+00
1.2063648508e+00
1.2066838522e+00
1.2068863205e+00
1.2069426144e+00
1.2068436280e+00
1.2066060865e+00
1.2062677517e+00
1.2058798610e+00
1.2054928593e+00
1.2051474755e+00
1.2048670243e+00
1.2046585109e+00
1.2045156041e+00
1.2044251881e+00
1.2043722156e+00
1.2043434826e+00
1.2043290397e+00
1.2043223172e+00
1.2043194219e+00
1.2043182691e+00
1.2043178457e+00
1.2043177025e+00
1.2043176580e+00
1.2043176453e+00
1.2043176420e+00
1.2043176412e+00
1.2043176410e+00
1.2043176410e+00
1.2043176410e+00
1.2043176410e+00
1.2043176410e+00
1.2043176410e+00
1.2043176410e+00
1.2043176410e+00
1.2043176410e+00
1.2043176410e+00
1.2043176410e+00
1.2043176410e+00
1.2043176410e+00
1.2043176410e+00
1.2043176410e+00
1.2043176410e+00
1.2043176410e+00
1.2043176410e+00
1.2043176410e+00
1.2043176410e+00
1.2043176410e+00
1.2043176410e+00
1.2043176410e+00
1.2043176410e+00
1.2043176410e+00
1.2043176410e+00
1.2043176410e+00
1.2043176410e+00
1.2043176410e+00
1.2043176410e+00
1.2043176410e+00
1.2043176410e+00
1.2043176410e+00
1.2043176410e+00
1.2043176410e+00
1.2043176410e+00
1.2043176410e+00
1.2043176410e+00
1.2043176410e+00
1.2043176410e+00
1.2043176410e+00
1.2043176410e+00
1.2043176410e+00
1.2043176410e+00
1.2043176410e+00
1.2043176410e+00
1.2043176410e+00
1.2043176410e+00
1.2043176410e+00
1.1744360653e+00
1.1758366362e+00
1.1775828785e+00
1.1799930945e+00
1.1828626367e+00
1.1859621359e+00
1.1890732482e+00
1.1920085183e+00
1.1946332175e+00
1.1968671473e+00
1.1986855824e+00
1.2001057639e+00
1.2011758435e+00
1.2019587523e+00
1.2025220805e+00
1.2029287487e+00
1.2032335768e+00
1.2034815632e+00
1.2037092164e+00
1.2039459162e+00
1.2042150127e+00
1.2045331634e+00
1.2049077969e+00
1.2053334835e+00
1.2057887283e+00
1.2062357073e+00
1.2066245548e+00
1.2069031011e+00
1.2070292538e+00
1.2069838275e+00
1.2067761468e+00
1.2064439138e+00
1.2060414127e+00
1.2056274283e+00
1.2052496514e+00
1.2049386342e+00
1.2047046712e+00
1.2045432087e+00
1.2044404140e+00
1.2043800064e+00
1.2043471597e+00
1.2043306433e+00
1.2043229614e+00
1.2043196591e+00
1.2043183493e+00
1.2043178702e+00
1.2043177093e+00
1.2043176596e+00
1.2043176457e+00
1.2043176421e+00
1.2043176412e+00
1.2043176410e+00
1.2043176410e+00
1.2043176410e+00
1.2043176410e+00
1.2043176410e+00
1.2043176410e+00
1.2043176410e+00
1.2043176410e+00
1.2043176410e+00
1.2043176410e+00
1.2043176410e+00
1.2043176410e+00
1.2043176410e+00
1.2043176410e+00
1.2043176410e+00
1.2043176410e+00
1.2043176410e+00
1.2043176410e+00
1.2043176410e+00
1.2043176410e+00
1.2043176410e+00
1.2043176410e+00
1.2043176410e+00
1.2043176410e+00
1.2043176410e+00
1.2043176410e+00
1.2043176410e+00
1.2043176410e+00
1.2043176410e+00
1.2043176410e+00
1.2043176410e+00
1.2043176410e+00
1.2043176410e+00
1.2043176410e+00
1.2043176410e+00
1.2043176410e+00
1.2043176410e+00
1.2043176410e+00
1.2043176410e+00
1.2043176410e+00
1.2043176410e+00
1.2043176410e+00
1.2043176410e+00
1.2043176410e+00
1.2043176410e+00
1.2043176410e+00
1.2043176410e+00
1.2043176410e+00
1.2043176410e+00
1.1770511164e+00
1.1783940856e+00
1.1799930945e+00
1.1821919981e+00
1.1848027815e+00
1.1876204521e+00
1.1904444135e+00
1.1931076641e+00
1.1954859844e+00
1.1975091463e+00
1.1991533635e+00
1.2004358608e+00
1.2013992031e+00
1.2021010039e+00
1.2026014938e+00
1.2029577111e+00
1.2032189072e+00
1.2034266864e+00
1.2036158489e+00
1.2038165498e+00
1.2040550039e+00
1.2043524584e+00
1.2047214761e+00
1.2051608007e+00
1.2056503395e+00
1.2061497997e+00
1.2066026135e+00
1.2069467579e+00
1.2071299104e+00
1.2071238778e+00
1.2069345057e+00
1.2065992302e+00
1.2061784412e+00
1.2057367315e+00
1.2053298234e+00
1.2049923499e+00
1.2047379770e+00
1.2045620994e+00
1.2044503203e+00
1.2043847426e+00
1.2043492352e+00
1.2043314655e+00
1.2043232528e+00
1.2043197503e+00
1.2043183730e+00
1.2043178751e+00
1.2043177097e+00
1.2043176594e+00
1.2043176455e+00
1.2043176420e+00
1.2043176412e+00
1.2043176410e+00
1.2043176410e+00
1.2043176410e+00
1.2043176410e+00
1.2043176410e+00
1.2043176410e+00
1.2043176410e+00
1.2043176410e+00
1.2043176410e+00
1.2043176410e+00
1.2043176410e+00
1.2043176410e+00
1.2043176410e+00
1.2043176410e+00
1.2043176410e+00
1.2043176410e+00
1.2043176410e+00
1.2043176410e+00
1.2043176410e+00
1.2043176410e+00
1.2043176410e+00
1.2043176410e+00
1.2043176410e+00
1.2043176410e+00
1.2043176410e+00
1.2043176410e+00
1.2043176410e+00
1.2043176410e+00
1.2043176410e+00
1.2043176410e+00
1.2043176410e+00
1.2043176410e+00
1.2043176410e+00
1.2043176410e+00
1.2043176410e+00
1.2043176410e+00
1.2043176410e+00
1.2043176410e+00
1.2043176410e+00
1.2043176410e+00
1.2043176410e+00
1.2043176410e+00
1.2043176410e+00
1.2043176410e+00
1.2043176410e+00
1.2043176410e+00
1.2043176410e+00
1.2043176410e+00
1.2043176410e+00
1.1801863561e+00
1.1814451158e+00
1.1828626367e+00
1.1848027815e+00
1.1871030378e+00
1.1895804450e+00
1.1920621429e+00
1.1943989383e+00
1.1964848350e+00
1.1982563793e+00
1.1996949426e+00
1.2008143547e+00
1.2016531174e+00
1.2022606616e+00
1.2026901320e+00
1.2029908315e+00
1.2032065128e+00
1.2033745737e+00
1.2035282707e+00
1.2036982386e+00
1.2039134096e+00
1.2041988716e+00
1.2045712775e+00
1.2050317487e+00
1.2055600095e+00
1.2061114950e+00
1.2066223914e+00
1.2070212859e+00
1.2072468858e+00
1.2072654527e+00
1.2070804482e+00
1.2067332254e+00
1.2062887013e+00
1.2058196392e+00
1.2053861216e+00
1.2050274356e+00
1.2047575665e+00
1.2045720274e+00
1.2044546913e+00
1.2043863934e+00
1.2043497000e+00
1.2043315171e+00
1.2043232048e+00
1.2043197024e+00
1.2043183453e+00
1.2043178620e+00
1.2043177045e+00
1.2043176576e+00
1.2043176450e+00
1.2043176419e+00
1.2043176412e+00
1.2043176410e+00
1.2043176410e+00
1.2043176410e+00
1.2043176410e+00
1.2043176410e+00
1.2043176410e+00
1.2043176410e+00
1.2043176410e+00
1.2043176410e+00
1.2043176410e+00
1.2043176410e+00
1.2043176410e+00
1.2043176410e+00
1.2043176410e+00
1.2043176410e+00
1.2043176410e+00
1.2043176410e+00
1.2043176410e+00
1.2043176410e+00
1.2043176410e+00
1.2043176410e+00
1.2043176410e+00
1.2043176410e+00
1.2043176410e+00
1.2043176410e+00
1.2043176410e+00
1.2043176410e+00
1.2043176410e+00
1.2043176410e+00
1.2043176410e+00
1.2043176410e+00
1.2043176410e+00
1.2043176410e+00
1.2043176410e+00
1.2043176410e+00
1.2043176410e+00
1.2043176410e+00
1.2043176410e+00
1.2043176410e+00
1.2043176410e+00
1.2043176410e+00
1.2043176410e+00
1.2043176410e+00
1.2043176410e+00
1.2043176410e+00
1.2043176410e+00
1.2043176410e+00
1.2043176410e+00
1.2043176410e+00
1.1835865041e+00
1.1847464761e+00
1.1859621359e+00
1.1876204521e+00
1.1895804450e+00
1.1916896629e+00
1.1937983698e+00
1.1957830421e+00
1.1975514208e+00
1.1990522993e+00
1.2002683147e+00
1.2012128870e+00
1.2019174819e+00
1.2024247296e+00
1.2027788026e+00
1.2030220118e+00
1.2031917744e+00
1.2033219240e+00
1.2034440154e+00
1.2035895818e+00
1.2037898999e+00
1.2040734569e+00
1.2044593867e+00
1.2049497344e+00
1.2055214546e+00
1.2061246139e+00
1.2066868502e+00
1.2071282882e+00
1.2073807756e+00
1.2074070537e+00
1.2072127189e+00
1.2068429183e+00
1.2063708005e+00
1.2058738584e+00
1.2054179985e+00
1.2050429981e+00
1.2047635301e+00
1.2045729343e+00
1.2044537424e+00
1.2043850866e+00
1.2043486761e+00
1.2043308741e+00
1.2043228582e+00
1.2043195387e+00
1.2043182754e+00
1.2043178355e+00
1.2043176954e+00
1.2043176548e+00
1.2043176442e+00
1.2043176417e+00
1.2043176411e+00
1.2043176410e+00
1.2043176410e+00
1.2043176410e+00
1.2043176410e+00
1.2043176410e+00
1.2043176410e+00
1.2043176410e+00
1.2043176410e+00
1.2043176410e+00
1.2043176410e+00
1.2043176410e+00
1.2043176410e+00
1.2043176410e+00
1.2043176410e+00
1.2043176410e+00
1.2043176410e+00
1.2043176410e+00
1.2043176410e+00
1.2043176410e+00
1.2043176410e+00
1.2043176410e+00
1.2043176410e+00
1.2043176410e+00
1.2043176410e+00
1.2043176410e+00
1.2043176410e+00
1.2043176410e+00
1.2043176410e+00
1.2043176410e+00
1.2043176410e+00
1.2043176410e+00
1.2043176410e+00
1.2043176410e+00
1.2043176410e+00
1.2043176410e+00
1.2043176410e+00
1.2043176410e+00
1.2043176410e+00
1.2043176410e+00
1.2043176410e+00
1.2043176410e+00
1.2043176410e+00
1.2043176410e+00
1.2043176410e+00
1.2043176410e+00
1.2043176410e+00
1.2043176410e+00
1.2043176410e+00
1.2043176410e+00
1.1870085854e+00
1.1880620906e+00
1.1890732482e+00
1.1904444135e+00
1.1920621429e+00
1.1937983698e+00
1.1955330303e+00
1.1971621629e+00
1.1986127665e+00
1.1998409757e+00
1.2008345580e+00
1.2016031911e+00
1.2021737384e+00
1.2025801254e+00
1.2028591238e+00
1.2030452770e+00
1.2031708821e+00
1.2032661852e+00
1.2033619981e+00
1.2034907347e+00
1.2036862076e+00
1.2039791289e+00
1.2043900479e+00
1.2049191550e+00
1.2055392171e+00
1.2061922699e+00
1.2067977358e+00
1.2072676265e+00
1.2075293578e+00
1.2075461238e+00
1.2073270969e+00
1.2069259090e+00
1.2064214857e+00
1.2058986618e+00
1.2054243105e+00
1.2050395219e+00
1.2047560233e+00
1.2045654751e+00
1.2044478643e+00
1.2043811885e+00
1.2043463803e+00
1.2043296643e+00
1.2043222829e+00
1.2043192892e+00
1.2043181779e+00
1.2043178005e+00
1.2043176841e+00
1.2043176515e+00
1.2043176433e+00
1.2043176414e+00
1.2043176411e+00
1.2043176410e+00
1.2043176410e+00
1.2043176410e+00
1.2043176410e+00
1.2043176410e+00
1.2043176410e+00
1.2043176410e+00
1.2043176410e+00
1.2043176410e+00
1.2043176410e+00
1.2043176410e+00
1.2043176410e+00
1.2043176410e+00
1.2043176410e+00
1.2043176410e+00
1.2043176410e+00
1.2043176410e+00
1.2043176410e+00
1.2043176410e+00
1.2043176410e+00
1.2043176410e+00
1.2043176410e+00
1.2043176410e+00
1.2043176410e+00
1.2043176410e+00
1.2043176410e+00
1.2043176410e+00
1.2043176410e+00
1.2043176410e+00
1.2043176410e+00
1.2043176410e+00
1.2043176410e+00
1.2043176410e+00
1.2043176410e+00
1.2043176410e+00
1.2043176410e+00
1.2043176410e+00
1.2043176410e+00
1.2043176410e+00
1.2043176410e+00
1.2043176410e+00
1.2043176410e+00
1.2043176410e+00
1.2043176410e+00
1.2043176410e+00
1.2043176410e+00
1.2043176410e+00
1.2043176410e+00
1.2043176410e+00
1.1902464288e+00
1.1911939237e+00
1.1920085183e+00
1.1931076641e+00
1.1943989383e+00
1.1957830421e+00
1.1971621629e+00
1.1984562899e+00
1.1996054633e+00
1.2005769653e+00
1.2013596137e+00
1.2019623752e+00
1.2024054084e+00
1.2027162630e+00
1.2029235998e+00
1.2030560417e+00
1.2031408959e+00
1.2032063162e+00
1.2032826663e+00
1.2034040376e+00
1.2036061076e+00
1.2039212760e+00
1.2043689462e+00
1.2049459774e+00
1.2056174709e+00
1.2063171312e+00
1.2069547890e+00
1.2074366891e+00
1.2076885673e+00
1.2076768513e+00
1.2074193520e+00
1.2069772945e+00
1.2064391491e+00
1.2058921891e+00
1.2054057710e+00
1.2050173163e+00
1.2047363162e+00
1.2045504384e+00
1.2044378586e+00
1.2043751758e+00
1.2043431207e+00
1.2043280559e+00
1.2043215582e+00
1.2043189929e+00
1.2043180669e+00
1.2043177631e+00
1.2043176726e+00
1.2043176483e+00
1.2043176425e+00
1.2043176413e+00
1.2043176410e+00
1.2043176410e+00
1.2043176410e+00
1.2043176410e+00
1.2043176410e+00
1.2043176410e+00
1.2043176410e+00
1.2043176410e+00
1.2043176410e+00
1.2043176410e+00
1.2043176410e+00
1.2043176410e+00
1.2043176410e+00
1.2043176410e+00
1.2043176410e+00
1.2043176410e+00
1.2043176410e+00
1.2043176410e+00
1.2043176410e+00
1.2043176410e+00
1.2043176410e+00
1.2043176410e+00
1.2043176410e+00
1.2043176410e+00
1.2043176410e+00
1.2043176410e+00
1.2043176410e+00
1.2043176410e+00
1.2043176410e+00
1.2043176410e+00
1.2043176410e+00
1.2043176410e+00
1.2043176410e+00
1.2043176410e+00
1.2043176410e+00
1.2043176410e+00
1.2043176410e+00
1.2043176410e+00
1.2043176410e+00
1.2043176410e+00
1.2043176410e+00
1.2043176410e+00
1.2043176410e+00
1.2043176410e+00
1.2043176410e+00
1.2043176410e+00
1.2043176410e+00
1.2043176410e+00
1.2043176410e+00
1.2043176410e+00
1.1931505204e+00
1.1939956876e+00
1.1946332175e+00
1.1954859844e+00
1.1964848350e+00
1.1975514208e+00
1.1986127665e+00
1.1996054633e+00
1.2004854305e+00
1.2012259906e+00
1.2018199270e+00
1.2022728861e+00
1.2026010605e+00
1.2028248433e+00
1.2029671821e+00
1.2030510376e+00
1.2031007394e+00
1.2031429127e+00
1.2032088276e+00
1.2033340597e+00
1.2035561869e+00
1.2039071668e+00
1.2044039383e+00
1.2050362238e+00
1.2057606255e+00
1.2064997293e+00
1.2071556961e+00
1.2076302007e+00
1.2078510056e+00
1.2077925564e+00
1.2074822730e+00
1.2069936611e+00
1.2064205261e+00
1.2058549230e+00
1.2053625994e+00
1.2049783441e+00
1.2047056987e+00
1.2045292955e+00
1.2044246196e+00
1.2043676840e+00
1.2043392487e+00
1.2043262291e+00
1.2043207734e+00
1.2043186842e+00
1.2043179572e+00
1.2043177275e+00
1.2043176623e+00
1.2043176456e+00
1.2043176419e+00
1.2043176411e+00
1.2043176410e+00
1.2043176410e+00
1.2043176410e+00
1.2043176410e+00
1.2043176410e+00
1.2043176410e+00
1.2043176410e+00
1.2043176410e+00
1.2043176410e+00
1.2043176410e+00
1.2043176410e+00
1.2043176410e+00
1.2043176410e+00
1.2043176410e+00
1.2043176410e+00
1.2043176410e+00
1.2043176410e+00
1.2043176410e+00
1.2043176410e+00
1.2043176410e+00
1.2043176410e+00
1.2043176410e+00
1.2043176410e+00
1.2043176410e+00
1.2043176410e+00
1.2043176410e+00
1.2043176410e+00
1.2043176410e+00
1.2043176410e+00
1.2043176410e+00
1.2043176410e+00
1.2043176410e+00
1.2043176410e+00
1.2043176410e+00
1.2043176410e+00
1.2043176410e+00
1.2043176410e+00
1.2043176410e+00
1.2043176410e+00
1.2043176410e+00
1.2043176410e+00
1.2043176410e+00
1.2043176410e+00
1.2043176410e+00
1.2043176410e+00
1.2043176410e+00
1.2043176410e+00
1.2043176410e+00
1.2043176410e+00
1.2043176410e+00
1.1956330122e+00
1.1963832827e+00
1.1968671473e+00
1.1975091463e+00
1.1982563793e+00
1.1990522993e+00
1.1998409757e+00
1.2005769653e+00
1.2012259906e+00
1.2017695241e+00
1.2022009354e+00
1.2025251685e+00
1.2027533559e+00
1.2029014210e+00
1.2029868715e+00
1.2030294399e+00
1.2030512441e+00
1.2030792243e+00
1.2031457728e+00
1.2032885396e+00
1.2035453751e+00
1.2039467759e+00
1.2045034310e+00
1.2051967185e+00
1.2059709480e+00
1.2067388937e+00
1.2073946647e+00
1.2078395362e+00
1.2080072932e+00
1.2078832483e+00
1.2075096691e+00
1.2069695196e+00
1.2063651100e+00
1.2057865356e+00
1.2052973510e+00
1.2049244179e+00
1.2046665525e+00
1.2045035407e+00
1.2044093160e+00
1.2043593696e+00
1.2043351296e+00
1.2043243673e+00
1.2043200039e+00
1.2043183964e+00
1.2043178589e+00
1.2043176975e+00
1.2043176540e+00
1.2043176436e+00
1.2043176415e+00
1.2043176411e+00
1.2043176410e+00
1.2043176410e+00
1.2043176410e+00
1.2043176410e+00
1.2043176410e+00
1.2043176410e+00
1.2043176410e+00
1.2043176410e+00
1.2043176410e+00
1.2043176410e+00
1.2043176410e+00
1.2043176410e+00
1.2043176410e+00
1.2043176410e+00
1.2043176410e+00
1.2043176410e+00
1.2043176410e+00
1.2043176410e+00
1.2043176410e+00
1.2043176410e+00
1.2043176410e+00
1.2043176410e+00
1.2043176410e+00
1.2043176410e+00
1.2043176410e+00
1.2043176410e+00
1.2043176410e+00
1.2043176410e+00
1.2043176410e+00
1.2043176410e+00
1.2043176410e+00
1.2043176410e+00
1.2043176410e+00
1.2043176410e+00
1.2043176410e+00
1.2043176410e+00
1.2043176410e+00
1.2043176410e+00
1.2043176410e+00
1.2043176410e+00
1.2043176410e+00
1.2043176410e+00
1.2043176410e+00
1.2043176410e+00
1.2043176410e+00
1.2043176410e+00
1.2043176410e+00
1.2043176410e+00
1.2043176410e+00
1.2043176410e+00
1.1976661304e+00
1.1983284661e+00
1.1986855824e+00
1.1991533635e+00
1.1996949426e+00
1.2002683147e+00
1.2008345580e+00
1.2013596137e+00
1.2018199270e+00
1.2022009354e+00
1.2024985749e+00
1.2027154460e+00
1.2028602123e+00
1.2029444281e+00
1.2029828152e+00
1.2029927343e+00
1.2029963119e+00
1.2030213330e+00
1.2031023944e+00
1.2032780745e+00
1.2035858478e+00
1.2040511911e+00
1.2046771233e+00
1.2054322515e+00
1.2062492199e+00
1.2070291975e+00
1.2076624471e+00
1.2080527603e+00
1.2081444529e+00
1.2079391222e+00
1.2074929923e+00
1.2069023897e+00
1.2062713707e+00
1.2056898422e+00
1.2052122632e+00
1.2048590332e+00
1.2046211618e+00
1.2044751389e+00
1.2043930719e+00
1.2043509099e+00
1.2043311060e+00
1.2043226200e+00
1.2043193161e+00
1.2043181497e+00
1.2043177798e+00
1.2043176745e+00
1.2043176481e+00
1.2043176423e+00
1.2043176412e+00
1.2043176410e+00
1.2043176410e+00
1.2043176410e+00
1.2043176410e+00
1.2043176410e+00
1.2043176410e+00
1.2043176410e+00
1.2043176410e+00
1.2043176410e+00
1.2043176410e+00
1.2043176410e+00
1.2043176410e+00
1.2043176410e+00
1.2043176410e+00
1.2043176410e+00
1.2043176410e+00
1.2043176410e+00
1.2043176410e+00
1.2043176410e+00
1.2043176410e+00
1.2043176410e+00
1.2043176410e+00
1.2043176410e+00
1.2043176410e+00
1.2043176410e+00
1.2043176410e+00
1.2043176410e+00
1.2043176410e+00
1.2043176410e+00
1.2043176410e+00
1.2043176410e+00
1.2043176410e+00
1.2043176410e+00
1.2043176410e+00
1.2043176410e+00
1.2043176410e+00
1.2043176410e+00
1.2043176410e+00
1.2043176410e+00
1.2043176410e+00
1.2043176410e+00
1.2043176410e+00
1.2043176410e+00
1.2043176410e+00
1.2043176410e+00
1.2043176410e+00
1.2043176410e+00
1.2043176410e+00
1.2043176410e+00
1.2043176410e+00
1.2043176410e+00
1.1992698354e+00
1.1998507229e+00
1.2001057639e+00
1.2004358608e+00
1.2008143547e+00
1.2012128870e+00
1.2016031911e+00
1.2019623752e+00
1.2022728861e+00
1.2025251685e+00
1.2027154460e+00
1.2028460922e+00
1.2029230366e+00
1.2029560619e+00
1.2029578978e+00
1.2029459610e+00
1.2029431103e+00
1.2029794452e+00
1.2030910290e+00
1.2033171017e+00
1.2036915232e+00
1.2042332567e+00
1.2049328814e+00
1.2057462028e+00
1.2065912385e+00
1.2073614489e+00
1.2079449826e+00
1.2082539456e+00
1.2082484710e+00
1.2079478192e+00
1.2074266932e+00
1.2067887369e+00
1.2061418076e+00
1.2055672714e+00
1.2051120657e+00
1.2047854434e+00
1.2045725992e+00
1.2044458849e+00
1.2043770532e+00
1.2043428968e+00
1.2043274518e+00
1.2043211078e+00
1.2043187469e+00
1.2043179577e+00
1.2043177213e+00
1.2043176589e+00
1.2043176444e+00
1.2043176416e+00
1.2043176411e+00
1.2043176410e+00
1.2043176410e+00
1.2043176410e+00
1.2043176410e+00
1.2043176410e+00
1.2043176410e+00
1.2043176410e+00
1.2043176410e+00
1.2043176410e+00
1.2043176410e+00
1.2043176410e+00
1.2043176410e+00
1.2043176410e+00
1.2043176410e+00
1.2043176410e+00
1.2043176410e+00
1.2043176410e+00
1.2043176410e+00
1.2043176410e+00
1.2043176410e+00
1.2043176410e+00
1.2043176410e+00
1.2043176410e+00