# vtk DataFile Version 2.0
Blank
ASCII
DATASET STRUCTURED_GRID
DIMENSIONS 101 101 2
POINTS 20402 float
0.0000000000e+00 0.0000000000e+00 0.0000000000e+00
1.0000000000e-02 0.0000000000e+00 0.0000000000e+00
2.0000000000e-02 0.0000000000e+00 0.0000000000e+00
3.0000000000e-02 0.0000000000e+00 0.0000000000e+00
4.0000000000e-02 0.0000000000e+00 0.0000000000e+00
5.0000000000e-02 0.0000000000e+00 0.0000000000e+00
6.0000000000e-02 0.0000000000e+00 0.0000000000e+00
7.0000000000e-02 0.0000000000e+00 0.0000000000e+00
8.0000000000e-02 0.0000000000e+00 0.0000000000e+00
9.0000000000e-02 0.0000000000e+00 0.0000000000e+00
1.0000000000e-01 0.0000000000e+00 0.0000000000e+00
1.1000000000e-01 0.0000000000e+00 0.0000000000e+00
1.2000000000e-01 0.0000000000e+00 0.0000000000e+00
1.3000000000e-01 0.0000000000e+00 0.0000000000e+00
1.4000000000e-01 0.0000000000e+00 0.0000000000e+00
1.5000000000e-01 0.0000000000e+00 0.0000000000e+00
1.6000000000e-01 0.0000000000e+00 0.0000000000e+00
1.7000000000e-01 0.0000000000e+00 0.0000000000e+00
1.8000000000e-01 0.0000000000e+00 0.0000000000e+00
1.9000000000e-01 0.0000000000e+00 0.0000000000e+00
2.0000000000e-01 0.0000000000e+00 0.0000000000e+00
2.1000000000e-01 0.0000000000e+00 0.0000000000e+00
2.2000000000e-01 0.0000000000e+00 0.0000000000e+00
2.3000000000e-01 0.0000000000e+00 0.0000000000e+00
2.4000000000e-01 0.0000000000e+00 0.0000000000e+00
2.5000000000e-01 0.0000000000e+00 0.0000000000e+00
2.6000000000e-01 0.0000000000e+00 0.0000000000e+00
2.7000000000e-01 0.0000000000e+00 0.0000000000e+00
2.8000000000e-01 0.0000000000e+00 0.0000000000e+00
2.9000000000e-01 0.0000000000e+00 0.0000000000e+00
3.0000000000e-01 0.0000000000e+00 0.0000000000e+00
3.1000000000e-01 0.0000000000e+00 0.0000000000e+00
3.2000000000e-01 0.0000000000e+00 0.0000000000e+00
3.3000000000e-01 0.0000000000e+00 0.0000000000e+00
3.4000000000e-01 0.0000000000e+00 0.0000000000e+00
3.5000000000e-01 0.0000000000e+00 0.0000000000e+00
3.6000000000e-01 0.0000000000e+00 0.0000000000e+00
3.7000000000e-01 0.0000000000e+00 0.0000000000e+00
3.8000000000e-01 0.0000000000e+00 0.0000000000e+00
3.9000000000e-01 0.0000000000e+00 0.0000000000e+00
4.0000000000e-01 0.0000000000e+00 0.0000000000e+00
4.1000000000e-01 0.0000000000e+00 0.0000000000e+00
4.2000000000e-01 0.0000000000e+00 0.0000000000e+00
4.3000000000e-01 0.0000000000e+00 0.0000000000e+00
4.4000000000e-01 0.0000000000e+00 0.0000000000e+00
4.5000000000e-01 0.0000000000e+00 0.0000000000e+00
4.6000000000e-01 0.0000000000e+00 0.0000000000e+00
4.7000000000e-01 0.0000000000e+00 0.0000000000e+00
4.8000000000e-01 0.0000000000e+00 0.0000000000e+00
4.9000000000e-01 0.0000000000e+00 0.0000000000e+00
5.0000000000e-01 0.0000000000e+00 0.0000000000e+00
5.1000000000e-01 0.0000000000e+00 0.0000000000e+00
5.2000000000e-01 0.0000000000e+00 0.0000000000e+00
5.3000000000e-01 0.0000000000e+00 0.0000000000e+00
5.4000000000e-01 0.0000000000e+00 0.0000000000e+00
5.5000000000e-01 0.0000000000e+00 0.0000000000e+00
5.6000000000e-01 0.0000000000e+00 0.0000000000e+00
5.7000000000e-01 0.0000000000e+00 0.0000000000e+00
5.8000000000e-01 0.0000000000e+00 0.0000000000e+00
5.9000000000e-01 0.0000000000e+00 0.0000000000e+00
6.0000000000e-01 0.0000000000e+00 0.0000000000e+00
6.1000000000e-01 0.0000000000e+00 0.0000000000e+00
6.2000000000e-01 0.0000000000e+00 0.0000000000e+00
6.3000000000e-01 0.0000000000e+00 0.0000000000e+00
6.4000000000e-01 0.0000000000e+00 0.0000000000e+00
6.5000000000e-01 0.0000000000e+00 0.0000000000e+00
6.6000000000e-01 0.0000000000e+00 0.0000000000e+00
6.7000000000e-01 0.0000000000e+00 0.0000000000e+00
6.8000000000e-01 0.0000000000e+00 0.0000000000e+00
6.9000000000e-01 0.0000000000e+00 0.0000000000e+00
7.0000000000e-01 0.0000000000e+00 0.0000000000e+00
7.1000000000e-01 0.0000000000e+00 0.0000000000e+00
7.2000000000e-01 0.0000000000e+00 0.0000000000e+00
7.3000000000e-01 0.0000000000e+00 0.0000000000e+00
7.4000000000e-01 0.0000000000e+00 0.0000000000e+00
7.5000000000e-01 0.0000000000e+00 0.0000000000e+00
7.6000000000e-01 0.0000000000e+00 0.0000000000e+00
7.7000000000e-01 0.0000000000e+00 0.0000000000e+00
7.8000000000e-01 0.0000000000e+00 0.0000000000e+00
7.9000000000e-01 0.0000000000e+00 0.0000000000e+00
8.0000000000e-01 0.0000000000e+00 0.0000000000e+00
8.1000000000e-01 0.0000000000e+00 0.0000000000e+00
8.2000000000e-01 0.0000000000e+00 0.0000000000e+00
8.3000000000e-01 0.0000000000e+00 0.0000000000e+00
8.4000000000e-01 0.0000000000e+00 0.0000000000e+00
8.5000000000e-01 0.0000000000e+00 0.0000000000e+00
8.6000000000e-01 0.0000000000e+00 0.0000000000e+00
8.7000000000e-01 0.0000000000e+00 0.0000000000e+00
8.8000000000e-01 0.0000000000e+00 0.0000000000e+00
8.9000000000e-01 0.0000000000e+00 0.0000000000e+00
9.0000000000e-01 0.0000000000e+00 0.0000000000e+00
9.1000000000e-01 0.0000000000e+00 0.0000000000e+00
9.2000000000e-01 0.0000000000e+00 0.0000000000e+00
9.3000000000e-01 0.0000000000e+00 0.0000000000e+00
9.4000000000e-01 0.0000000000e+00 0.0000000000e+00
9.5000000000e-01 0.0000000000e+00 0.0000000000e+00
9.6000000000e-01 0.0000000000e+00 0.0000000000e+00
9.7000000000e-01 0.0000000000e+00 0.0000000000e+00
9.8000000000e-01 0.0000000000e+00 0.0000000000e+00
9.9000000000e-01 0.0000000000e+00 0.0000000000e+00
1.0000000000e+00 0.0000000000e+00 0.0000000000e+00
0.0000000000e+00 1.0000000000e-02 0.0000000000e+00
1.0000000000e-02 1.0000000000e-02 0.0000000000e+00
2.0000000000e-02 1.0000000000e-02 0.0000000000e+00
3.0000000000e-02 1.0000000000e-02 0.0000000000e+00
4.0000000000e-02 1.0000000000e-02 0.0000000000e+00
5.0000000000e-02 1.0000000000e-02 0.0000000000e+00
6.0000000000e-02 1.0000000000e-02 0.0000000000e+00
7.0000000000e-02 1.0000000000e-02 0.0000000000e+00
8.0000000000e-02 1.0000000000e-02 0.0000000000e+00
9.0000000000e-02 1.0000000000e-02 0.0000000000e+00
1.0000000000e-01 1.0000000000e-02 0.0000000000e+00
1.1000000000e-01 1.0000000000e-02 0.0000000000e+00
1.2000000000e-01 1.0000000000e-02 0.0000000000e+00
1.3000000000e-01 1.0000000000e-02 0.0000000000e+00
1.4000000000e-01 1.0000000000e-02 0.0000000000e+00
1.5000000000e-01 1.0000000000e-02 0.0000000000e+00
1.6000000000e-01 1.0000000000e-02 0.0000000000e+00
1.7000000000e-01 1.0000000000e-02 0.0000000000e+00
1.8000000000e-01 1.0000000000e-02 0.0000000000e+00
1.9000000000e-01 1.0000000000e-02 0.0000000000e+00
2.0000000000e-01 1.0000000000e-02 0.0000000000e+00
2.1000000000e-01 1.0000000000e-02 0.0000000000e+00
2.2000000000e-01 1.0000000000e-02 0.0000000000e+00
2.3000000000e-01 1.0000000000e-02 0.0000000000e+00
2.4000000000e-01 1.0000000000e-02 0.0000000000e+00
2.5000000000e-01 1.0000000000e-02 0.0000000000e+00
2.6000000000e-01 1.0000000000e-02 0.0000000000e+00
2.7000000000e-01 1.0000000000e-02 0.0000000000e+00
2.8000000000e-01 1.0000000000e-02 0.0000000000e+00
2.9000000000e-01 1.0000000000e-02 0.0000000000e+00
3.0000000000e-01 1.0000000000e-02 0.0000000000e+00
3.1000000000e-01 1.0000000000e-02 0.0000000000e+00
3.2000000000e-01 1.0000000000e-02 0.0000000000e+00
3.3000000000e-01 1.0000000000e-02 0.0000000000e+00
3.4000000000e-01 1.0000000000e-02 0.0000000000e+00
3.5000000000e-01 1.0000000000e-02 0.0000000000e+00
3.6000000000e-01 1.0000000000e-02 0.0000000000e+00
3.7000000000e-01 1.0000000000e-02 0.0000000000e+00
3.8000000000e-01 1.0000000000e-02 0.0000000000e+00
3.9000000000e-01 1.0000000000e-02 0.0000000000e+00
4.0000000000e-01 1.0000000000e-02 0.0000000000e+00
4.1000000000e-01 1.0000000000e-02 0.0000000000e+00
4.2000000000e-01 1.0000000000e-02 0.0000000000e+00
4.3000000000e-01 1.0000000000e-02 0.0000000000e+00
4.4000000000e-01 1.0000000000e-02 0.0000000000e+00
4.5000000000e-01 1.0000000000e-02 0.0000000000e+00
4.6000000000e-01 1.0000000000e-02 0.0000000000e+00
4.7000000000e-01 1.0000000000e-02 0.0000000000e+00
4.8000000000e-01 1.0000000000e-02 0.0000000000e+00
4.9000000000e-01 1.0000000000e-02 0.0000000000e+00
5.0000000000e-01 1.0000000000e-02 0.0000000000e+00
5.1000000000e-01 1.0000000000e-02 0.0000000000e+00
5.2000000000e-01 1.0000000000e-02 0.0000000000e+00
5.3000000000e-01 1.0000000000e-02 0.0000000000e+00
5.4000000000e-01 1.0000000000e-02 0.0000000000e+00
5.5000000000e-01 1.0000000000e-02 0.0000000000e+00
5.6000000000e-01 1.0000000000e-02 0.0000000000e+00
5.7000000000e-01 1.0000000000e-02 0.0000000000e+00
5.8000000000e-01 1.0000000000e-02 0.0000000000e+00
5.9000000000e-01 1.0000000000e-02 0.0000000000e+00
6.0000000000e-01 1.0000000000e-02 0.0000000000e+00
6.1000000000e-01 1.0000000000e-02 0.0000000000e+00
6.2000000000e-01 1.0000000000e-02 0.0000000000e+00
6.3000000000e-01 1.0000000000e-02 0.0000000000e+00
6.4000000000e-01 1.0000000000e-02 0.0000000000e+00
6.5000000000e-01 1.0000000000e-02 0.0000000000e+00
6.6000000000e-01 1.0000000000e-02 0.0000000000e+00
6.7000000000e-01 1.0000000000e-02 0.0000000000e+00
6.8000000000e-01 1.0000000000e-02 0.0000000000e+00
6.9000000000e-01 1.0000000000e-02 0.0000000000e+00
7.0000000000e-01 1.0000000000e-02 0.0000000000e+00
7.1000000000e-01 1.0000000000e-02 0.0000000000e+00
7.2000000000e-01 1.0000000000e-02 0.0000000000e+00
7.3000000000e-01 1.0000000000e-02 0.0000000000e+00
7.4000000000e-01 1.0000000000e-02 0.0000000000e+00
7.5000000000e-01 1.0000000000e-02 0.0000000000e+00
7.6000000000e-01 1.0000000000e-02 0.0000000000e+00
7.7000000000e-01 1.0000000000e-02 0.0000000000e+00
7.8000000000e-01 1.0000000000e-02 0.0000000000e+00
7.9000000000e-01 1.0000000000e-02 0.0000000000e+00
8.0000000000e-01 1.0000000000e-02 0.0000000000e+00
8.1000000000e-01 1.0000000000e-02 0.0000000000e+00
8.2000000000e-01 1.0000000000e-02 0.0000000000e+00
8.3000000000e-01 1.0000000000e-02 0.0000000000e+00
8.4000000000e-01 1.0000000000e-02 0.0000000000e+00
8.5000000000e-01 1.0000000000e-02 0.0000000000e+00
8.6000000000e-01 1.0000000000e-02 0.0000000000e+00
8.7000000000e-01 1.0000000000e-02 0.0000000000e+00
8.8000000000e-01 1.0000000000e-02 0.0000000000e+00
8.9000000000e-01 1.0000000000e-02 0.0000000000e+00
9.0000000000e-01 1.0000000000e-02 0.0000000000e+00
9.1000000000e-01 1.0000000000e-02 0.0000000000e+00
9.2000000000e-01 1.0000000000e-02 0.0000000000e+00
[...]
CELL_DATA 10000

SCALARS massDensity float
LOOKUP_TABLE default
1.1606327254e+00
1.1629307392e+00
1.1660243695e+00
1.1702676801e+00
1.1751981399e+00
1.1803366008e+00
1.1852662992e+00
1.1896806807e+00
1.1934117881e+00
1.1964202918e+00
1.1987704720e+00
1.2005888115e+00
1.2020273071e+00
1.2032308681e+00
1.2043160857e+00
1.2053568394e+00
1.2063771093e+00
1.2073504092e+00
1.2082071056e+00
1.2088538807e+00
1.2092007700e+00
1.2091946165e+00
1.2088408481e+00
1.2082115196e+00
1.2074242598e+00
1.2066117384e+00
1.2058828012e+00
1.2053030232e+00
1.2048890189e+00
1.2046223745e+00
1.2044667961e+00
1.2043845090e+00
1.2043450259e+00
1.2043278553e+00
1.2043211000e+00
1.2043186998e+00
1.2043179328e+00
1.2043177130e+00
1.2043176568e+00
1.2043176441e+00
1.2043176415e+00
1.2043176411e+00
1.2043176410e+00
1.2043176410e+00
1.2043176410e+00
1.2043176410e+00
1.2043176410e+00
1.2043176410e+00
1.2043176410e+00
1.2043176410e+00
1.2043176410e+00
1.2043176410e+00
1.2043176410e+00
1.2043176410e+00
1.2043176410e+00
1.2043176410e+00
1.2043176410e+00
1.2043176410e+00
1.2043176410e+00
1.2043176410e+00
1.2043176410e+00
1.2043176410e+00
1.2043176410e+00
1.2043176410e+00
1.2043176410e+00
1.2043176410e+00
1.2043176410e+00
1.2043176410e+00
1.2043176410e+00
1.2043176410e+00
1.2043176410e+00
1.2043176410e+00
1.2043176410e+00
1.2043176410e+00
1.2043176410e+00
1.2043176410e+00
1.2043176410e+00
1.2043176410e+00
1.2043176410e+00
1.2043176410e+00
1.2043176410e+00
1.2043176410e+00
1.2043176410e+00
1.2043176410e+00
1.2043176410e+00
1.2043176410e+00
1.2043176410e+00
1.2043176410e+00
1.2043176410e+00
1.2043176410e+00
1.2043176410e+00
1.2043176410e+00
1.2043176410e+00
1.2043176410e+00
1.2043176410e+00
1.2043176410e+00
1.2043176410e+00
1.2043176410e+00
1.2043176410e+00
1.2043176410e+00
1.1629307392e+00
1.1652869918e+00
1.1683184674e+00
1.1724277421e+00
1.1771720501e+00
1.1820957873e+00
1.1867935702e+00
1.1909722663e+00
1.1944653401e+00
1.1972345304e+00
1.1993367240e+00
1.2008922237e+00
1.2020462343e+00
1.2029441114e+00
1.2037114951e+00
1.2044433727e+00
1.2051948768e+00
1.2059750805e+00
1.2067454463e+00
1.2074275978e+00
1.2079247315e+00
1.2081518605e+00
1.2080696770e+00
1.2077007374e+00
1.2071288859e+00
1.2064681855e+00
1.2058315950e+00
1.2052969661e+00
1.2048994507e+00
1.2046344754e+00
1.2044756293e+00
1.2043896018e+00
1.2043475155e+00
1.2043289131e+00
1.2043214914e+00
1.2043188281e+00
1.2043179692e+00
1.2043177221e+00
1.2043176588e+00
1.2043176444e+00
1.2043176416e+00
1.2043176411e+00
1.2043176410e+00
1.2043176410e+00
1.2043176410e+00
1.2043176410e+00
1.2043176410e+00
1.2043176410e+00
1.2043176410e+00
1.2043176410e+00
1.2043176410e+00
1.2043176410e+00
1.2043176410e+00
1.2043176410e+00
1.2043176410e+00
1.2043176410e+00
1.2043176410e+00
1.2043176410e+00
1.2043176410e+00
1.2043176410e+00
1.2043176410e+00
1.2043176410e+00
1.2043176410e+00
1.2043176410e+00
1.2043176410e+00
1.2043176410e+00
1.2043176410e+00
1.2043176410e+00
1.2043176410e+00
1.2043176410e+00
1.2043176410e+00
1.2043176410e+00
1.2043176410e+00
1.2043176410e+00
1.2043176410e+00
1.2043176410e+00
1.2043176410e+00
1.2043176410e+00
1.2043176410e+00
1.2043176410e+00
1.2043176410e+00
1.2043176410e+00
1.2043176410e+00
1.2043176410e+00
1.2043176410e+00
1.2043176410e+00
1.2043176410e+00
1.2043176410e+00
1.2043176410e+00
1.2043176410e+00
1.2043176410e+00
1.2043176410e+00
1.2043176410e+00
1.2043176410e+00
1.2043176410e+00
1.2043176410e+00
1.2043176410e+00
1.2043176410e+00
1.2043176410e+00
1.2043176410e+00
1.1660243695e+00
1.1683184674e+00
1.1711443718e+00
1.1749470805e+00
1.1793267182e+00
1.1838592781e+00
1.1881776723e+00
1.1920075052e+00
1.1951999690e+00
1.1977166161e+00
1.1996126000e+00
1.2009977536e+00
1.2020101527e+00
1.2027893325e+00
1.2034624862e+00
1.2041311257e+00
1.2048607195e+00
1.2056685628e+00
1.2065171449e+00
1.2073174969e+00
1.2079507459e+00
1.2083045721e+00
1.2083132495e+00
1.2079869581e+00
1.2074078202e+00
1.2067057739e+00
1.2060098663e+00
1.2054172509e+00
1.2049718825e+00
1.2046739169e+00
1.2044948227e+00
1.2043979955e+00
1.2043507802e+00
1.2043300303e+00
1.2043218267e+00
1.2043189117e+00
1.2043179865e+00
1.2043177244e+00
1.2043176588e+00
1.2043176443e+00
1.2043176415e+00
1.2043176411e+00
1.2043176410e+00
1.2043176410e+00
1.2043176410e+00
1.2043176410e+00
1.2043176410e+00
1.2043176410e+00
1.2043176410e+00
1.2043176410e+00
1.2043176410e+00
1.2043176410e+00
1.2043176410e+00
1.2043176410e+00
1.2043176410e+00
1.2043176410e+00
1.2043176410e+00
1.2043176410e+00
1.2043176410e+00
1.2043176410e+00
1.2043176410e+00
1.2043176410e+00
1.2043176410e+00
1.2043176410e+00
1.2043176410e+00
1.2043176410e+00
1.2043176410e+00
1.2043176410e+00
1.2043176410e+00
1.2043176410e+00
1.2043176410e+00
1.2043176410e+00
1.2043176410e+00
1.2043176410e+00
1.2043176410e+00
1.2043176410e+00
1.2043176410e+00
1.2043176410e+00
1.2043176410e+00
1.2043176410e+00
1.2043176410e+00
1.2043176410e+00
1.2043176410e+00
1.2043176410e+00
1.2043176410e+00
1.2043176410e+00
1.2043176410e+00
1.2043176410e+00
1.2043176410e+00
1.2043176410e+00
1.2043176410e+00
1.2043176410e+00
1.2043176410e+00
1.2043176410e+00
1.2043176410e+00
1.2043176410e+00
1.2043176410e+00
1.2043176410e+00
1.2043176410e+00
1.2043176410e+00
1.1702676801e+00
1.1724277421e+00
1.1749470805e+00
1.1783218924e+00
1.1821934383e+00
1.1861945751e+00
1.1899952507e+00
1.1933596564e+00
1.1961520899e+00
1.1983432017e+00
1.1999795870e+00
1.2011626105e+00
1.2020172944e+00
1.2026764541e+00
1.2032642775e+00
1.2038858404e+00
1.2046113388e+00
1.2054611841e+00
1.2063925690e+00
1.2073026833e+00
1.2080499427e+00
1.2084976732e+00
1.2085625711e+00
1.2082466002e+00
1.2076410123e+00
1.2068879522e+00
1.2061368130e+00
1.2054947840e+00
1.2050141557e+00
1.2046937799e+00
1.2045028818e+00
1.2044006077e+00
1.2043513537e+00
1.2043300285e+00
1.2043217366e+00
1.2043188551e+00
1.2043179610e+00
1.2043177156e+00
1.2043176562e+00
1.2043176437e+00
1.2043176414e+00
1.2043176411e+00
1.2043176410e+00
1.2043176410e+00
1.2043176410e+00
1.2043176410e+00
1.2043176410e+00
1.2043176410e+00
1.2043176410e+00
1.2043176410e+00
1.2043176410e+00
1.2043176410e+00
1.2043176410e+00
1.2043176410e+00
1.2043176410e+00
1.2043176410e+00
1.2043176410e+00
1.2043176410e+00
1.2043176410e+00
1.2043176410e+00
1.2043176410e+00
1.2043176410e+00
1.2043176410e+00
1.2043176410e+00
1.2043176410e+00
1.2043176410e+00
1.2043176410e+00
1.2043176410e+00
1.2043176410e+00
1.2043176410e+00
1.2043176410e+00
1.2043176410e+00
1.2043176410e+00
1.2043176410e+00
1.2043176410e+00
1.2043176410e+00
1.2043176410e+00
1.2043176410e+00
1.2043176410e+00
1.2043176410e+00
1.2043176410e+00
1.2043176410e+00
1.2043176410e+00
1.2043176410e+00
1.2043176410e+00
1.2043176410e+00
1.2043176410e+00
1.2043176410e+00
1.2043176410e+00
1.2043176410e+00
1.2043176410e+00
1.2043176410e+00
1.2043176410e+00
1.2043176410e+00
1.2043176410e+00
1.2043176410e+00
1.2043176410e+00
1.2043176410e+00
1.2043176410e+00
1.2043176410e+00
1.1751981399e+00
1.1771720501e+00
1.1793267182e+00
1.1821934383e+00
1.1854752590e+00
1.1888547266e+00
1.1920596483e+00
1.1948849508e+00
1.1972217463e+00
1.1990420983e+00
1.2003905090e+00
1.2013541250e+00
1.2020474301e+00
1.2025929014e+00
1.2031115845e+00
1.2037076515e+00
1.2044523492e+00
1.2053615882e+00
1.2063825942e+00
1.2073928456e+00
1.2082291502e+00
1.2087347039e+00
1.2088152851e+00
1.2084769855e+00
1.2078212250e+00
1.2070111507e+00
1.2062072758e+00
1.2055282421e+00
1.2050248223e+00
1.2046942197e+00
1.2044999644e+00
1.2043977553e+00
1.2043494804e+00
1.2043290369e+00
1.2043213001e+00
1.2043186865e+00
1.2043179056e+00
1.2043176996e+00
1.2043176522e+00
1.2043176428e+00
1.2043176413e+00
1.2043176410e+00
1.2043176410e+00
1.2043176410e+00
1.2043176410e+00
1.2043176410e+00
1.2043176410e+00
1.2043176410e+00
1.2043176410e+00
1.2043176410e+00
1.2043176410e+00
1.2043176410e+00
1.2043176410e+00
1.2043176410e+00
1.2043176410e+00
1.2043176410e+00
1.2043176410e+00
1.2043176410e+00
1.2043176410e+00
1.2043176410e+00
1.2043176410e+00
1.2043176410e+00
1.2043176410e+00
1.2043176410e+00
1.2043176410e+00
1.2043176410e+00
1.2043176410e+00
1.2043176410e+00
1.2043176410e+00
1.2043176410e+00
1.2043176410e+00
1.2043176410e+00
1.2043176410e+00
1.2043176410e+00
1.2043176410e+00
1.2043176410e+00
1.2043176410e+00
1.2043176410e+00
1.2043176410e+00
1.2043176410e+00
1.2043176410e+00
1.2043176410e+00
1.2043176410e+00
1.2043176410e+00
1.2043176410e+00
1.2043176410e+00
1.2043176410e+00
1.2043176410e+00
1.2043176410e+00
1.2043176410e+00
1.2043176410e+00
1.2043176410e+00
1.2043176410e+00
1.2043176410e+00
1.2043176410e+00
1.2043176410e+00
1.2043176410e+00
1.2043176410e+00
1.2043176410e+00
1.2043176410e+00
1.1803366008e+00
1.1820957873e+00
1.1838592781e+00
1.1861945751e+00
1.1888547266e+00
1.1915888569e+00
1.1941700177e+00
1.1964382038e+00
1.1983010700e+00
1.1997415764e+00
1.2007958062e+00
1.2015425362e+00
1.2020828575e+00
1.2025319248e+00
1.2030048591e+00
1.2036037175e+00
1.2043939125e+00
1.2053821836e+00
1.2064968103e+00
1.2075944633e+00
1.2084889505e+00
1.2090104090e+00
1.2090642775e+00
1.2086667892e+00
1.2079420028e+00
1.2070676231e+00
1.2062198880e+00
1.2055160146e+00
1.2050053234e+00
1.2046762393e+00
1.2044873508e+00
1.2043902753e+00
1.2043456523e+00
1.2043273328e+00
1.2043206270e+00
1.2043184561e+00
1.2043178355e+00
1.2043176813e+00
1.2043176481e+00
1.2043176420e+00
1.2043176411e+00
1.2043176410e+00
1.2043176410e+00
1.2043176410e+00
1.2043176410e+00
1.2043176410e+00
1.2043176410e+00
1.2043176410e+00
1.2043176410e+00
1.2043176410e+00
1.2043176410e+00
1.2043176410e+00
1.2043176410e+00
1.2043176410e+00
1.2043176410e+00
1.2043176410e+00
1.2043176410e+00
1.2043176410e+00
1.2043176410e+00
1.2043176410e+00
1.2043176410e+00
1.2043176410e+00
1.2043176410e+00
1.2043176410e+00
1.2043176410e+00
1.2043176410e+00
1.2043176410e+00
1.2043176410e+00
1.2043176410e+00
1.2043176410e+00
1.2043176410e+00
1.2043176410e+00
1.2043176410e+00
1.2043176410e+00
1.2043176410e+00
1.2043176410e+00
1.2043176410e+00
1.2043176410e+00
1.2043176410e+00
1.2043176410e+00
1.2043176410e+00
1.2043176410e+00
1.2043176410e+00
1.2043176410e+00
1.2043176410e+00
1.2043176410e+00
1.2043176410e+00
1.2043176410e+00
1.2043176410e+00
1.2043176410e+00
1.2043176410e+00
1.2043176410e+00
1.2043176410e+00
1.2043176410e+00
1.2043176410e+00
1.2043176410e+00
1.2043176410e+00
1.2043176410e+00
1.2043176410e+00
1.2043176410e+00
1.1852662992e+00
1.1867935702e+00
1.1881776723e+00
1.1899952507e+00
1.1920596483e+00
1.1941700177e+00
1.1961556709e+00
1.1978875988e+00
1.1992996086e+00
1.2003773441e+00
1.2011563902e+00
1.2017043669e+00
1.2021148262e+00
1.2024943707e+00
1.2029538552e+00
1.2035880780e+00
1.2044531197e+00
1.2055365811e+00
1.2067450535e+00
1.2079082065e+00
1.2088228573e+00
1.2093127064e+00
1.2092928345e+00
1.2088037505e+00
1.2079906261e+00
1.2070539942e+00
1.2061717330e+00
1.2054608756e+00
1.2049577391e+00
1.2046428084e+00
1.2044669742e+00
1.2043794510e+00
1.2043405896e+00
1.2043252311e+00
1.2043198646e+00
1.2043182104e+00
1.2043177675e+00
1.2043176648e+00
1.2043176447e+00
1.2043176415e+00
1.2043176410e+00
1.2043176410e+00
1.2043176410e+00
1.2043176410e+00
1.2043176410e+00
1.2043176410e+00
1.2043176410e+00
1.2043176410e+00
1.2043176410e+00
1.2043176410e+00
1.2043176410e+00
1.2043176410e+00
1.2043176410e+00
1.2043176410e+00
1.2043176410e+00
1.2043176410e+00
1.2043176410e+00
1.2043176410e+00
1.2043176410e+00
1.2043176410e+00
1.2043176410e+00
1.2043176410e+00
1.2043176410e+00
1.2043176410e+00
1.2043176410e+00
1.2043176410e+00
1.2043176410e+00
1.2043176410e+00
1.2043176410e+00
1.2043176410e+00
1.2043176410e+00
1.2043176410e+00
1.2043176410e+00
1.2043176410e+00
1.2043176410e+00
1.2043176410e+00
1.2043176410e+00
1.2043176410e+00
1.2043176410e+00
1.2043176410e+00
1.2043176410e+00
1.2043176410e+00
1.2043176410e+00
1.2043176410e+00
1.2043176410e+00
1.2043176410e+00
1.2043176410e+00
1.2043176410e+00
1.2043176410e+00
1.2043176410e+00
1.2043176410e+00
1.2043176410e+00
1.2043176410e+00
1.2043176410e+00
1.2043176410e+00
1.2043176410e+00
1.2043176410e+00
1.2043176410e+00
1.2043176410e+00
1.2043176410e+00
1.1896806807e+00
1.1909722663e+00
1.1920075052e+00
1.1933596564e+00
1.1948849508e+00
1.1964382038e+00
1.1978875988e+00
1.1991419125e+00
1.2001499481e+00
1.2009078128e+00
1.2014467392e+00
1.2018307427e+00
1.2021454861e+00
1.2024932876e+00
1.2029774864e+00
1.2036839917e+00
1.2046500598e+00
1.2058406208e+00
1.2071311538e+00
1.2083285752e+00
1.2092146811e+00
1.2096191464e+00
1.2094803570e+00
1.2088675988e+00
1.2079586674e+00
1.2069640218e+00
1.2060661294e+00
1.2053658119e+00
1.2048874620e+00
1.2045975575e+00
1.2044415682e+00
1.2043668379e+00
1.2043350424e+00
1.2043230900e+00
1.2043191321e+00
1.2043179945e+00
1.2043177119e+00
1.2043176528e+00
1.2043176426e+00
1.2043176412e+00
1.2043176410e+00
1.2043176410e+00
1.2043176410e+00
1.2043176410e+00
1.2043176410e+00
1.2043176410e+00
1.2043176410e+00
1.2043176410e+00
1.2043176410e+00
1.2043176410e+00
1.2043176410e+00
1.2043176410e+00
1.2043176410e+00
1.2043176410e+00
1.2043176410e+00
1.2043176410e+00
1.2043176410e+00
1.2043176410e+00
1.2043176410e+00
1.2043176410e+00
1.2043176410e+00
1.2043176410e+00
1.2043176410e+00
1.2043176410e+00
1.2043176410e+00
1.2043176410e+00
1.2043176410e+00
1.2043176410e+00
1.2043176410e+00
1.2043176410e+00
1.2043176410e+00
1.2043176410e+00
1.2043176410e+00
1.2043176410e+00
1.2043176410e+00
1.2043176410e+00
1.2043176410e+00
1.2043176410e+00
1.2043176410e+00
1.2043176410e+00
1.2043176410e+00
1.2043176410e+00
1.2043176410e+00
1.2043176410e+00
1.2043176410e+00
1.2043176410e+00
1.2043176410e+00
1.2043176410e+00
1.2043176410e+00
1.2043176410e+00
1.2043176410e+00
1.2043176410e+00
1.2043176410e+00
1.2043176410e+00
1.2043176410e+00
1.2043176410e+00
1.2043176410e+00
1.2043176410e+00
1.2043176410e+00
1.2043176410e+00
1.1934117881e+00
1.1944653401e+00
1.1951999690e+00
1.1961520899e+00
1.1972217463e+00
1.1983010700e+00
1.1992996086e+00
1.2001499481e+00
1.2008213331e+00
1.2013143859e+00
1.2016634911e+00
1.2019285416e+00
1.2021932464e+00
1.2025538402e+00
1.2031064458e+00
1.2039197442e+00
1.2050085954e+00
1.2063041058e+00
1.2076530250e+00
1.2088372507e+00
1.2096369111e+00
1.2098993394e+00
1.2095968375e+00
1.2088413009e+00
1.2078338832e+00
1.2067997743e+00
1.2059062445e+00
1.2052391609e+00
1.2048004293e+00
1.2045455621e+00
1.2044140786e+00
1.2043539987e+00
1.2043297672e+00
1.2043211741e+00
1.2043185316e+00
1.2043178304e+00
1.2043176744e+00
1.2043176457e+00
1.2043176415e+00
1.2043176410e+00
1.2043176410e+00
1.2043176410e+00
1.2043176410e+00
1.2043176410e+00
1.2043176410e+00
1.2043176410e+00
1.2043176410e+00
1.2043176410e+00
1.2043176410e+00
1.2043176410e+00
1.2043176410e+00
1.2043176410e+00
1.2043176410e+00
1.2043176410e+00
1.2043176410e+00
1.2043176410e+00
1.2043176410e+00
1.2043176410e+00
1.2043176410e+00
1.2043176410e+00
1.2043176410e+00
1.2043176410e+00
1.2043176410e+00
1.2043176410e+00
1.2043176410e+00
1.2043176410e+00
1.2043176410e+00
1.2043176410e+00
1.2043176410e+00
1.2043176410e+00
1.2043176410e+00
1.2043176410e+00
1.2043176410e+00
1.2043176410e+00
1.2043176410e+00
1.2043176410e+00
1.2043176410e+00
1.2043176410e+00
1.2043176410e+00
1.2043176410e+00
1.2043176410e+00
1.2043176410e+00
1.2043176410e+00
1.2043176410e+00
1.2043176410e+00
1.2043176410e+00
1.2043176410e+00
1.2043176410e+00
1.2043176410e+00
1.2043176410e+00
1.2043176410e+00
1.2043176410e+00
1.2043176410e+00
1.2043176410e+00
1.2043176410e+00
1.2043176410e+00
1.2043176410e+00
1.2043176410e+00
1.2043176410e+00
1.2043176410e+00
1.1964202918e+00
1.1972345304e+00
1.1977166161e+00
1.1983432017e+00
1.1990420983e+00
1.1997415764e+00
1.2003773441e+00
1.2009078128e+00
1.2013143859e+00
1.2016079542e+00
1.2018243292e+00
1.2020255165e+00
1.2022920650e+00
1.2027158384e+00
1.2033785912e+00
1.2043285881e+00
1.2055464573e+00
1.2069302305e+00
1.2082923175e+00
1.2094027210e+00
1.2100489490e+00
1.2101119377e+00
1.2096131833e+00
1.2087036336e+00
1.2076144021e+00
1.2065633250e+00
1.2057034937e+00
1.2050897240e+00
1.2047051586e+00
1.2044918828e+00
1.2043874435e+00
1.2043423598e+00
1.2043252850e+00
1.2043196830e+00
1.2043181004e+00
1.2043177263e+00
1.2043176535e+00
1.2043176423e+00
1.2043176411e+00
1.2043176410e+00
1.2043176410e+00
1.2043176410e+00
1.2043176410e+00
1.2043176410e+00
1.2043176410e+00
1.2043176410e+00
1.2043176410e+00
1.2043176410e+00
1.2043176410e+00
1.2043176410e+00
1.2043176410e+00
1.2043176410e+00
1.2043176410e+00
1.2043176410e+00
1.2043176410e+00
1.2043176410e+00
1.2043176410e+00
1.2043176410e+00
1.2043176410e+00
1.2043176410e+00
1.2043176410e+00
1.2043176410e+00
1.2043176410e+00
1.2043176410e+00
1.2043176410e+00
1.2043176410e+00
1.2043176410e+00
1.2043176410e+00
1.2043176410e+00
1.2043176410e+00
1.2043176410e+00
1.2043176410e+00
1.2043176410e+00
1.2043176410e+00
1.2043176410e+00
1.2043176410e+00
1.2043176410e+00
1.2043176410e+00
1.2043176410e+00
1.2043176410e+00
1.2043176410e+00
1.2043176410e+00
1.2043176410e+00
1.2043176410e+00
1.2043176410e+00
1.2043176410e+00
1.2043176410e+00
1.2043176410e+00
1.2043176410e+00
1.2043176410e+00
1.2043176410e+00
1.2043176410e+00
1.2043176410e+00
1.2043176410e+00
1.2043176410e+00
1.2043176410e+00
1.2043176410e+00
1.2043176410e+00
1.2043176410e+00
1.2043176410e+00
1.1987704720e+00
1.1993367240e+00
1.1996126000e+00
1.1999795870e+00
1.2003905090e+00
1.2007958062e+00
1.2011563902e+00
1.2014467392e+00
1.2016634911e+00
1.2018243292e+00
1.2019716734e+00
1.2021680645e+00
1.2024931615e+00
1.2030280521e+00
1.2038373908e+00
1.2049370633e+00
1.2062729266e+00
1.2077018937e+00
1.2090141647e+00
1.2099741816e+00
1.2103968609e+00
1.2102127977e+00
1.2094962107e+00
1.2084455325e+00
1.2072995320e+00
1.2062688545e+00
1.2054700694e+00
1.2049307525e+00
1.2046097444e+00
1.2044416201e+00
1.2043641214e+00
1.2043328518e+00
1.2043219343e+00
1.2043186595e+00
1.2043178399e+00
1.2043176713e+00
1.2043176444e+00
1.2043176413e+00
1.2043176410e+00
1.2043176410e+00
1.2043176410e+00
1.2043176410e+00
1.2043176410e+00
1.2043176410e+00
1.2043176410e+00
1.2043176410e+00
1.2043176410e+00
1.2043176410e+00
1.2043176410e+00
1.2043176410e+00
1.2043176410e+00
1.2043176410e+00
1.2043176410e+00
1.2043176410e+00
1.2043176410e+00
1.2043176410e+00
1.2043176410e+00
1.2043176410e+00
1.2043176410e+00
1.2043176410e+00
1.2043176410e+00
1.2043176410e+00
1.2043176410e+00
1.2043176410e+00
1.2043176410e+00
1.2043176410e+00
1.2043176410e+00
1.2043176410e+00
1.2043176410e+00
1.2043176410e+00
1.2043176410e+00
1.2043176410e+00
1.2043176410e+00
1.2043176410e+00
1.2043176410e+00
1.2043176410e+00
1.2043176410e+00
1.2043176410e+00
1.2043176410e+00
1.2043176410e+00
1.2043176410e+00
1.2043176410e+00
1.2043176410e+00
1.2043176410e+00
1.2043176410e+00
1.2043176410e+00
1.2043176410e+00
1.2043176410e+00
1.2043176410e+00
1.2043176410e+00
1.2043176410e+00
1.2043176410e+00
1.2043176410e+00
1.2043176410e+00
1.2043176410e+00
1.2043176410e+00
1.2043176410e+00
1.2043176410e+00
1.2043176410e+00
1.2043176410e+00
1.2005888115e+00
1.2008922237e+00
1.2009977536e+00
1.2011626105e+00
1.2013541250e+00
1.2015425362e+00
1.2017043669e+00
1.2018307427e+00
1.2019285416e+00
1.2020255165e+00
1.2021680645e+00
1.2024211543e+00
1.2028572769e+00
1.2035442864e+00
1.2045178116e+00
1.2057598968e+00
1.2071719005e+00
1.2085803571e+00
1.2097571202e+00
1.2104837623e+00
1.2106189163e+00
1.2101539383e+00
1.2092262670e+00
1.2080617045e+00
1.2069055607e+00
1.2059325609e+00
1.2052254626e+00
1.2047745675e+00
1.2045225160e+00
1.2043987293e+00
1.2043456456e+00
1.2043259698e+00
1.2043197190e+00
1.2043180665e+00
1.2043177085e+00
1.2043176488e+00
1.2043176416e+00
1.2043176410e+00
1.2043176410e+00
1.2043176410e+00
1.2043176410e+00
1.2043176410e+00
1.2043176410e+00
1.2043176410e+00
1.2043176410e+00
1.2043176410e+00
1.2043176410e+00
1.2043176410e+00
1.2043176410e+00
1.2043176410e+00
1.2043176410e+00
1.2043176410e+00
1.2043176410e+00
1.2043176410e+00
1.2043176410e+00
1.2043176410e+00
1.2043176410e+00
1.2043176410e+00
1.2043176410e+00
1.2043176410e+00
1.2043176410e+00
1.2043176410e+00
1.2043176410e+00
1.2043176410e+00
1.2043176410e+00
1.2043176410e+00
1.2043176410e+00
1.2043176410e+00
1.2043176410e+00
1.2043176410e+00
1.2043176410e+00
1.2043176410e+00