# vtk DataFile Version 2.0
Blank
ASCII
DATASET STRUCTURED_GRID
DIMENSIONS 101 101 2
POINTS 20402 float
0.0000000000e+00 0.0000000000e+00 0.0000000000e+00
1.0000000000e-02 0.0000000000e+00 0.0000000000e+00
2.0000000000e-02 0.0000000000e+00 0.0000000000e+00
3.0000000000e-02 0.0000000000e+00 0.0000000000e+00
4.0000000000e-02 0.0000000000e+00 0.0000000000e+00
5.0000000000e-02 0.0000000000e+00 0.0000000000e+00
6.0000000000e-02 0.0000000000e+00 0.0000000000e+00
7.0000000000e-02 0.0000000000e+00 0.0000000000e+00
8.0000000000e-02 0.0000000000e+00 0.0000000000e+00
9.0000000000e-02 0.0000000000e+00 0.0000000000e+00
1.0000000000e-01 0.0000000000e+00 0.0000000000e+00
1.1000000000e-01 0.0000000000e+00 0.0000000000e+00
1.2000000000e-01 0.0000000000e+00 0.0000000000e+00
1.3000000000e-01 0.0000000000e+00 0.0000000000e+00
1.4000000000e-01 0.0000000000e+00 0.0000000000e+00
1.5000000000e-01 0.0000000000e+00 0.0000000000e+00
1.6000000000e-01 0.0000000000e+00 0.0000000000e+00
1.7000000000e-01 0.0000000000e+00 0.0000000000e+00
1.8000000000e-01 0.0000000000e+00 0.0000000000e+00
1.9000000000e-01 0.0000000000e+00 0.0000000000e+00
2.0000000000e-01 0.0000000000e+00 0.0000000000e+00
2.1000000000e-01 0.0000000000e+00 0.0000000000e+00
2.2000000000e-01 0.0000000000e+00 0.0000000000e+00
2.3000000000e-01 0.0000000000e+00 0.0000000000e+00
2.4000000000e-01 0.0000000000e+00 0.0000000000e+00
2.5000000000e-01 0.0000000000e+00 0.0000000000e+00
2.6000000000e-01 0.0000000000e+00 0.0000000000e+00
2.7000000000e-01 0.0000000000e+00 0.0000000000e+00
2.8000000000e-01 0.0000000000e+00 0.0000000000e+00
2.9000000000e-01 0.0000000000e+00 0.0000000000e+00
3.0000000000e-01 0.0000000000e+00 0.0000000000e+00
3.1000000000e-01 0.0000000000e+00 0.0000000000e+00
3.2000000000e-01 0.0000000000e+00 0.0000000000e+00
3.3000000000e-01 0.0000000000e+00 0.0000000000e+00
3.4000000000e-01 0.0000000000e+00 0.0000000000e+00
3.5000000000e-01 0.0000000000e+00 0.0000000000e+00
3.6000000000e-01 0.0000000000e+00 0.0000000000e+00
3.7000000000e-01 0.0000000000e+00 0.0000000000e+00
3.8000000000e-01 0.0000000000e+00 0.0000000000e+00
3.9000000000e-01 0.0000000000e+00 0.0000000000e+00
4.0000000000e-01 0.0000000000e+00 0.0000000000e+00
4.1000000000e-01 0.0000000000e+00 0.0000000000e+00
4.2000000000e-01 0.0000000000e+00 0.0000000000e+00
4.3000000000e-01 0.0000000000e+00 0.0000000000e+00
4.4000000000e-01 0.0000000000e+00 0.0000000000e+00
4.5000000000e-01 0.0000000000e+00 0.0000000000e+00
4.6000000000e-01 0.0000000000e+00 0.0000000000e+00
4.7000000000e-01 0.0000000000e+00 0.0000000000e+00
4.8000000000e-01 0.0000000000e+00 0.0000000000e+00
4.9000000000e-01 0.0000000000e+00 0.0000000000e+00
5.0000000000e-01 0.0000000000e+00 0.0000000000e+00
5.1000000000e-01 0.0000000000e+00 0.0000000000e+00
5.2000000000e-01 0.0000000000e+00 0.0000000000e+00
5.3000000000e-01 0.0000000000e+00 0.0000000000e+00
5.4000000000e-01 0.0000000000e+00 0.0000000000e+00
5.5000000000e-01 0.0000000000e+00 0.0000000000e+00
5.6000000000e-01 0.0000000000e+00 0.0000000000e+00
5.7000000000e-01 0.0000000000e+00 0.0000000000e+00
5.8000000000e-01 0.0000000000e+00 0.0000000000e+00
5.9000000000e-01 0.0000000000e+00 0.0000000000e+00
6.0000000000e-01 0.0000000000e+00 0.0000000000e+00
6.1000000000e-01 0.0000000000e+00 0.0000000000e+00
6.2000000000e-01 0.0000000000e+00 0.0000000000e+00
6.3000000000e-01 0.0000000000e+00 0.0000000000e+00
6.4000000000e-01 0.0000000000e+00 0.0000000000e+00
6.5000000000e-01 0.0000000000e+00 0.0000000000e+00
6.6000000000e-01 0.0000000000e+00 0.0000000000e+00
6.7000000000e-01 0.0000000000e+00 0.0000000000e+00
6.8000000000e-01 0.0000000000e+00 0.0000000000e+00
6.9000000000e-01 0.0000000000e+00 0.0000000000e+00
7.0000000000e-01 0.0000000000e+00 0.0000000000e+00
7.1000000000e-01 0.0000000000e+00 0.0000000000e+00
7.2000000000e-01 0.0000000000e+00 0.0000000000e+00
7.3000000000e-01 0.0000000000e+00 0.0000000000e+00
7.4000000000e-01 0.0000000000e+00 0.0000000000e+00
7.5000000000e-01 0.0000000000e+00 0.0000000000e+00
7.6000000000e-01 0.0000000000e+00 0.0000000000e+00
7.7000000000e-01 0.0000000000e+00 0.0000000000e+00
7.8000000000e-01 0.0000000000e+00 0.0000000000e+00
7.9000000000e-01 0.0000000000e+00 0.0000000000e+00
8.0000000000e-01 0.0000000000e+00 0.0000000000e+00
8.1000000000e-01 0.0000000000e+00 0.0000000000e+00
8.2000000000e-01 0.0000000000e+00 0.0000000000e+00
8.3000000000e-01 0.0000000000e+00 0.0000000000e+00
8.4000000000e-01 0.0000000000e+00 0.0000000000e+00
8.5000000000e-01 0.0000000000e+00 0.0000000000e+00
8.6000000000e-01 0.0000000000e+00 0.0000000000e+00
8.7000000000e-01 0.0000000000e+00 0.0000000000e+00
8.8000000000e-01 0.0000000000e+00 0.0000000000e+00
8.9000000000e-01 0.0000000000e+00 0.0000000000e+00
9.0000000000e-01 0.0000000000e+00 0.0000000000e+00
9.1000000000e-01 0.0000000000e+00 0.0000000000e+00
9.2000000000e-01 0.0000000000e+00 0.0000000000e+00
9.3000000000e-01 0.0000000000e+00 0.0000000000e+00
9.4000000000e-01 0.0000000000e+00 0.0000000000e+00
9.5000000000e-01 0.0000000000e+00 0.0000000000e+00
9.6000000000e-01 0.0000000000e+00 0.0000000000e+00
9.7000000000e-01 0.0000000000e+00 0.0000000000e+00
9.8000000000e-01 0.0000000000e+00 0.0000000000e+00
9.9000000000e-01 0.0000000000e+00 0.0000000000e+00
1.0000000000e+00 0.0000000000e+00 0.0000000000e+00
0.0000000000e+00 1.0000000000e-02 0.0000000000e+00
1.0000000000e-02 1.0000000000e-02 0.0000000000e+00
2.0000000000e-02 1.0000000000e-02 0.0000000000e+00
3.0000000000e-02 1.0000000000e-02 0.0000000000e+00
4.0000000000e-02 1.0000000000e-02 0.0000000000e+00
5.0000000000e-02 1.0000000000e-02 0.0000000000e+00
6.0000000000e-02 1.0000000000e-02 0.0000000000e+00
7.0000000000e-02 1.0000000000e-02 0.0000000000e+00
8.0000000000e-02 1.0000000000e-02 0.0000000000e+00
9.0000000000e-02 1.0000000000e-02 0.0000000000e+00
1.0000000000e-01 1.0000000000e-02 0.0000000000e+00
1.1000000000e-01 1.0000000000e-02 0.0000000000e+00
1.2000000000e-01 1.0000000000e-02 0.0000000000e+00
1.3000000000e-01 1.0000000000e-02 0.0000000000e+00
1.4000000000e-01 1.0000000000e-02 0.0000000000e+00
1.5000000000e-01 1.0000000000e-02 0.0000000000e+00
1.6000000000e-01 1.0000000000e-02 0.0000000000e+00
1.7000000000e-01 1.0000000000e-02 0.0000000000e+00
1.8000000000e-01 1.0000000000e-02 0.0000000000e+00
1.9000000000e-01 1.0000000000e-02 0.0000000000e+00
2.0000000000e-01 1.0000000000e-02 0.0000000000e+00
2.1000000000e-01 1.0000000000e-02 0.0000000000e+00
2.2000000000e-01 1.0000000000e-02 0.0000000000e+00
2.3000000000e-01 1.0000000000e-02 0.0000000000e+00
2.4000000000e-01 1.0000000000e-02 0.0000000000e+00
2.5000000000e-01 1.0000000000e-02 0.0000000000e+00
2.6000000000e-01 1.0000000000e-02 0.0000000000e+00
2.7000000000e-01 1.0000000000e-02 0.0000000000e+00
2.8000000000e-01 1.0000000000e-02 0.0000000000e+00
2.9000000000e-01 1.0000000000e-02 0.0000000000e+00
3.0000000000e-01 1.0000000000e-02 0.0000000000e+00
3.1000000000e-01 1.0000000000e-02 0.0000000000e+00
3.2000000000e-01 1.0000000000e-02 0.0000000000e+00
3.3000000000e-01 1.0000000000e-02 0.0000000000e+00
3.4000000000e-01 1.0000000000e-02 0.0000000000e+00
3.5000000000e-01 1.0000000000e-02 0.0000000000e+00
3.6000000000e-01 1.0000000000e-02 0.0000000000e+00
3.7000000000e-01 1.0000000000e-02 0.0000000000e+00
3.8000000000e-01 1.0000000000e-02 0.0000000000e+00
3.9000000000e-01 1.0000000000e-02 0.0000000000e+00
4.0000000000e-01 1.0000000000e-02 0.0000000000e+00
4.1000000000e-01 1.0000000000e-02 0.0000000000e+00
4.2000000000e-01 1.0000000000e-02 0.0000000000e+00
4.3000000000e-01 1.0000000000e-02 0.0000000000e+00
4.4000000000e-01 1.0000000000e-02 0.0000000000e+00
4.5000000000e-01 1.0000000000e-02 0.0000000000e+00
4.6000000000e-01 1.0000000000e-02 0.0000000000e+00
4.7000000000e-01 1.0000000000e-02 0.0000000000e+00
4.8000000000e-01 1.0000000000e-02 0.0000000000e+00
4.9000000000e-01 1.0000000000e-02 0.0000000000e+00
5.0000000000e-01 1.0000000000e-02 0.0000000000e+00
5.1000000000e-01 1.0000000000e-02 0.0000000000e+00
5.2000000000e-01 1.0000000000e-02 0.0000000000e+00
5.3000000000e-01 1.0000000000e-02 0.0000000000e+00
5.4000000000e-01 1.0000000000e-02 0.0000000000e+00
5.5000000000e-01 1.0000000000e-02 0.0000000000e+00
5.6000000000e-01 1.0000000000e-02 0.0000000000e+00
5.7000000000e-01 1.0000000000e-02 0.0000000000e+00
5.8000000000e-01 1.0000000000e-02 0.0000000000e+00
5.9000000000e-01 1.0000000000e-02 0.0000000000e+00
6.0000000000e-01 1.0000000000e-02 0.0000000000e+00
6.1000000000e-01 1.0000000000e-02 0.0000000000e+00
6.2000000000e-01 1.0000000000e-02 0.0000000000e+00
6.3000000000e-01 1.0000000000e-02 0.0000000000e+00
6.4000000000e-01 1.0000000000e-02 0.0000000000e+00
6.5000000000e-01 1.0000000000e-02 0.0000000000e+00
6.6000000000e-01 1.0000000000e-02 0.0000000000e+00
6.7000000000e-01 1.0000000000e-02 0.0000000000e+00
6.8000000000e-01 1.0000000000e-02 0.0000000000e+00
6.9000000000e-01 1.0000000000e-02 0.0000000000e+00
7.0000000000e-01 1.0000000000e-02 0.0000000000e+00
7.1000000000e-01 1.0000000000e-02 0.0000000000e+00
7.2000000000e-01 1.0000000000e-02 0.0000000000e+00
7.3000000000e-01 1.0000000000e-02 0.0000000000e+00
7.4000000000e-01 1.0000000000e-02 0.0000000000e+00
7.5000000000e-01 1.0000000000e-02 0.0000000000e+00
7.6000000000e-01 1.0000000000e-02 0.0000000000e+00
7.7000000000e-01 1.0000000000e-02 0.0000000000e+00
7.8000000000e-01 1.0000000000e-02 0.0000000000e+00
7.9000000000e-01 1.0000000000e-02 0.0000000000e+00
8.0000000000e-01 1.0000000000e-02 0.0000000000e+00
8.1000000000e-01 1.0000000000e-02 0.0000000000e+00
8.2000000000e-01 1.0000000000e-02 0.0000000000e+00
8.3000000000e-01 1.0000000000e-02 0.0000000000e+00
8.4000000000e-01 1.0000000000e-02 0.0000000000e+00
8.5000000000e-01 1.0000000000e-02 0.0000000000e+00
8.6000000000e-01 1.0000000000e-02 0.0000000000e+00
8.7000000000e-01 1.0000000000e-02 0.0000000000e+00
8.8000000000e-01 1.0000000000e-02 0.0000000000e+00
8.9000000000e-01 1.0000000000e-02 0.0000000000e+00
9.0000000000e-01 1.0000000000e-02 0.0000000000e+00
9.1000000000e-01 1.0000000000e-02 0.0000000000e+00
9.2000000000e-01 1.0000000000e-02 0.0000000000e+00
[...]
CELL_DATA 10000

SCALARS massDensity float
LOOKUP_TABLE default
1.1935004681e+00
1.1936563406e+00
1.1938817034e+00
1.1942164862e+00
1.1946490706e+00
1.1951652358e+00
1.1957488422e+00
1.1963826518e+00
1.1970490490e+00
1.1977308525e+00
1.1984119360e+00
1.1990778571e+00
1.1997162309e+00
1.2003170639e+00
1.2008728250e+00
1.2013784738e+00
1.2018312690e+00
1.2022305671e+00
1.2025774695e+00
1.2028745084e+00
1.2031252508e+00
1.2033339830e+00
1.2035053658e+00
1.2036441913e+00
1.2037551397e+00
1.2038426386e+00
1.2039107281e+00
1.2039630139e+00
1.2040026208e+00
1.2040322116e+00
1.2040539965e+00
1.2040697865e+00
1.2040810287e+00
1.2040888689e+00
1.2040941921e+00
1.2040976788e+00
1.2040998390e+00
1.2041010565e+00
1.2041016129e+00
1.2041017184e+00
1.2041015271e+00
1.2041011569e+00
1.2041006984e+00
1.2041002262e+00
1.2040998051e+00
1.2040994953e+00
1.2040993570e+00
1.2040994525e+00
1.2040998501e+00
1.2041006241e+00
1.2041018591e+00
1.2041036484e+00
1.2041060992e+00
1.2041093295e+00
1.2041134747e+00
1.2041186827e+00
1.2041251213e+00
1.2041329725e+00
1.2041424404e+00
1.2041537432e+00
1.2041671215e+00
1.2041828279e+00
1.2042011339e+00
1.2042223159e+00
1.2042466589e+00
1.2042744361e+00
1.2043059076e+00
1.2043412900e+00
1.2043807464e+00
1.2044243452e+00
1.2044720405e+00
1.2045236211e+00
1.2045786879e+00
1.2046366023e+00
1.2046964758e+00
1.2047571370e+00
1.2048171567e+00
1.2048748567e+00
1.2049283916e+00
1.2049758128e+00
1.2050152097e+00
1.2050448155e+00
1.2050631785e+00
1.2050692643e+00
1.2050626002e+00
1.2050433110e+00
1.2050121774e+00
1.2049705626e+00
1.2049203601e+00
1.2048638180e+00
1.2048034100e+00
1.2047416177e+00
1.2046807977e+00
1.2046230046e+00
1.2045699204e+00
1.2045227692e+00
1.2044823272e+00
1.2044489191e+00
1.2044224809e+00
1.2044190114e+00
1.1936563406e+00
1.1938198441e+00
1.1940472131e+00
1.1943811119e+00
1.1948106872e+00
1.1953222373e+00
1.1959000868e+00
1.1965273001e+00
1.1971865868e+00
1.1978609672e+00
1.1985345630e+00
1.1991930691e+00
1.1998242847e+00
1.2004182982e+00
1.2009677011e+00
1.2014674850e+00
1.2019149754e+00
1.2023095192e+00
1.2026522400e+00
1.2029456308e+00
1.2031932500e+00
1.2033993282e+00
1.2035685001e+00
1.2037054973e+00
1.2038149682e+00
1.2039012830e+00
1.2039684517e+00
1.2040200310e+00
1.2040591210e+00
1.2040883455e+00
1.2041098968e+00
1.2041255563e+00
1.2041367588e+00
1.2041446286e+00
1.2041500424e+00
1.2041536646e+00
1.2041559996e+00
1.2041574184e+00
1.2041581975e+00
1.2041585360e+00
1.2041585821e+00
1.2041584429e+00
1.2041582005e+00
1.2041579179e+00
1.2041576479e+00
1.2041574366e+00
1.2041573277e+00
1.2041573657e+00
1.2041575964e+00
1.2041580711e+00
1.2041588448e+00
1.2041599811e+00
1.2041615489e+00
1.2041636281e+00
1.2041663051e+00
1.2041696798e+00
1.2041738592e+00
1.2041789659e+00
1.2041851298e+00
1.2041924979e+00
1.2042012239e+00
1.2042114788e+00
1.2042234384e+00
1.2042372939e+00
1.2042532366e+00
1.2042714673e+00
1.2042921764e+00
1.2043155506e+00
1.2043417458e+00
1.2043708879e+00
1.2044030361e+00
1.2044381761e+00
1.2044761743e+00
1.2045167658e+00
1.2045595051e+00
1.2046037611e+00
1.2046486793e+00
1.2046932039e+00
1.2047360716e+00
1.2047758803e+00
1.2048111291e+00
1.2048403385e+00
1.2048621264e+00
1.2048753586e+00
1.2048792214e+00
1.2048733539e+00
1.2048578644e+00
1.2048333923e+00
1.2048010314e+00
1.2047623020e+00
1.2047189885e+00
1.2046730515e+00
1.2046264342e+00
1.2045809750e+00
1.2045382536e+00
1.2044995563e+00
1.2044658028e+00
1.2044375777e+00
1.2044151396e+00
1.2044169500e+00
1.1938817034e+00
1.1940472131e+00
1.1942713660e+00
1.1945990758e+00
1.1950198884e+00
1.1955206052e+00
1.1960859462e+00
1.1966994708e+00
1.1973442518e+00
1.1980037664e+00
1.1986624431e+00
1.1993063573e+00
1.1999235299e+00
1.2005043234e+00
1.2010414503e+00
1.2015300607e+00
1.2019675043e+00
1.2023531830e+00
1.2026881677e+00
1.2029749300e+00
1.2032169271e+00
1.2034183229e+00
1.2035836310e+00
1.2037174989e+00
1.2038244563e+00
1.2039087924e+00
1.2039744145e+00
1.2040248122e+00
1.2040630050e+00
1.2040915675e+00
1.2041126330e+00
1.2041279504e+00
1.2041389142e+00
1.2041466291e+00
1.2041519454e+00
1.2041555171e+00
1.2041578318e+00
1.2041592557e+00
1.2041600549e+00
1.2041604266e+00
1.2041605122e+00
1.2041604181e+00
1.2041602222e+00
1.2041599864e+00
1.2041597606e+00
1.2041595891e+00
1.2041595135e+00
1.2041595750e+00
1.2041598175e+00
1.2041602876e+00
1.2041610379e+00
1.2041621255e+00
1.2041636161e+00
1.2041655808e+00
1.2041681017e+00
1.2041712670e+00
1.2041751776e+00
1.2041799409e+00
1.2041856785e+00
1.2041925180e+00
1.2042006020e+00
1.2042100785e+00
1.2042211101e+00
1.2042338628e+00
1.2042485162e+00
1.2042652496e+00
1.2042842515e+00
1.2043057018e+00
1.2043297781e+00
1.2043566305e+00
1.2043863813e+00
1.2044190878e+00
1.2044547323e+00
1.2044931732e+00
1.2045341277e+00
1.2045771190e+00
1.2046214662e+00
1.2046662470e+00
1.2047103196e+00
1.2047523258e+00
1.2047907679e+00
1.2048240660e+00
1.2048506919e+00
1.2048692640e+00
1.2048787068e+00
1.2048783313e+00
1.2048679626e+00
1.2048479436e+00
1.2048191770e+00
1.2047830203e+00
1.2047412327e+00
1.2046957856e+00
1.2046487603e+00
1.2046021451e+00
1.2045577541e+00
1.2045170850e+00
1.2044813084e+00
1.2044512205e+00
1.2044273113e+00
1.2044306720e+00
1.1942164862e+00
1.1943811119e+00
1.1945990758e+00
1.1949168644e+00
1.1953244529e+00
1.1958090752e+00
1.1963560713e+00
1.1969495128e+00
1.1975731303e+00
1.1982108929e+00
1.1988478274e+00
1.1994704093e+00
1.2000671284e+00
1.2006286104e+00
1.2011478720e+00
1.2016201773e+00
1.2020430172e+00
1.2024157765e+00
1.2027395345e+00
1.2030166517e+00
1.2032505056e+00
1.2034450988e+00
1.2036048219e+00
1.2037341493e+00
1.2038374804e+00
1.2039189461e+00
1.2039823388e+00
1.2040310187e+00
1.2040679160e+00
1.2040955084e+00
1.2041158666e+00
1.2041306717e+00
1.2041412784e+00
1.2041487467e+00
1.2041539039e+00
1.2041573759e+00
1.2041596382e+00
1.2041610398e+00
1.2041618410e+00
1.2041622288e+00
1.2041623423e+00
1.2041622813e+00
1.2041621224e+00
1.2041619235e+00
1.2041617333e+00
1.2041615931e+00
1.2041615424e+00
1.2041616199e+00
1.2041618664e+00
1.2041623259e+00
1.2041630462e+00
1.2041640815e+00
1.2041654906e+00
1.2041673410e+00
1.2041697054e+00
1.2041726670e+00
1.2041763144e+00
1.2041807480e+00
1.2041860735e+00
1.2041924090e+00
1.2041998773e+00
1.2042086142e+00
1.2042187594e+00
1.2042304662e+00
1.2042438915e+00
1.2042592064e+00
1.2042765848e+00
1.2042962143e+00
1.2043182796e+00
1.2043429699e+00
1.2043704528e+00
1.2044008711e+00
1.2044343025e+00
1.2044707410e+00
1.2045100416e+00
1.2045518927e+00
1.2045957584e+00
1.2046408617e+00
1.2046861517e+00
1.2047303300e+00
1.2047718725e+00
1.2048091242e+00
1.2048403840e+00
1.2048640621e+00
1.2048787964e+00
1.2048836232e+00
1.2048780585e+00
1.2048622114e+00
1.2048367612e+00
1.2048029663e+00
1.2047625183e+00
1.2047174567e+00
1.2046699492e+00
1.2046221788e+00
1.2045761385e+00
1.2045335667e+00
1.2044958273e+00
1.2044639302e+00
1.2044385146e+00
1.2044431116e+00
1.1946490706e+00
1.1948106872e+00
1.1950198884e+00
1.1953244529e+00
1.1957147100e+00
1.1961785274e+00
1.1967018301e+00
1.1972694864e+00
1.1978658722e+00
1.1984757559e+00
1.1990847480e+00
1.1996800059e+00
1.2002504557e+00
1.2007872135e+00
1.2012835436e+00
1.2017349858e+00
1.2021390938e+00
1.2024953348e+00
1.2028047037e+00
1.2030695009e+00
1.2032929263e+00
1.2034788400e+00
1.2036314163e+00
1.2037549574e+00
1.2038536502e+00
1.2039314618e+00
1.2039920018e+00
1.2040384959e+00
1.2040737319e+00
1.2041000882e+00
1.2041195332e+00
1.2041336816e+00
1.2041438192e+00
1.2041509653e+00
1.2041559033e+00
1.2041592365e+00
1.2041614134e+00
1.2041627717e+00
1.2041635557e+00
1.2041639471e+00
1.2041640753e+00
1.2041640381e+00
1.2041639062e+00
1.2041637362e+00
1.2041635729e+00
1.2041634562e+00
1.2041634226e+00
1.2041635087e+00
1.2041637525e+00
1.2041641946e+00
1.2041648799e+00
1.2041658574e+00
1.2041671827e+00
1.2041689159e+00
1.2041711256e+00
1.2041738848e+00
1.2041772766e+00
1.2041813881e+00
1.2041863172e+00
1.2041921651e+00
1.2041990442e+00
1.2042070699e+00
1.2042163695e+00
1.2042270743e+00
1.2042393301e+00
1.2042532897e+00
1.2042691256e+00
1.2042870209e+00
1.2043071816e+00
1.2043298219e+00
1.2043551689e+00
1.2043834345e+00
1.2044148038e+00
1.2044493866e+00
1.2044871855e+00
1.2045280303e+00
1.2045715373e+00
1.2046170477e+00
1.2046636089e+00
1.2047099545e+00
1.2047545469e+00
1.2047956302e+00
1.2048313552e+00
1.2048599015e+00
1.2048796613e+00
1.2048893753e+00
1.2048883070e+00
1.2048763059e+00
1.2048538942e+00
1.2048221953e+00
1.2047828991e+00
1.2047380643e+00
1.2046900021e+00
1.2046410315e+00
1.2045933672e+00
1.2045489264e+00
1.2045092921e+00
1.2044756260e+00
1.2044487204e+00
1.2044542769e+00
1.1951652358e+00
1.1953222373e+00
1.1955206052e+00
1.1958090752e+00
1.1961785274e+00
1.1966174025e+00
1.1971124750e+00
1.1976493545e+00
1.1982133675e+00
1.1987900274e+00
1.1993658287e+00
1.1999285479e+00
1.2004678078e+00
1.2009751381e+00
1.2014442523e+00
1.2018708750e+00
1.2022527616e+00
1.2025893623e+00
1.2028816716e+00
1.2031318284e+00
1.2033428989e+00
1.2035185040e+00
1.2036626200e+00
1.2037792917e+00
1.2038724985e+00
1.2039459725e+00
1.2040031413e+00
1.2040470390e+00
1.2040803122e+00
1.2041051966e+00
1.2041235615e+00
1.2041369227e+00
1.2041465025e+00
1.2041532559e+00
1.2041579290e+00
1.2041610850e+00
1.2041631527e+00
1.2041644458e+00
1.2041651990e+00
1.2041655798e+00
1.2041657138e+00
1.2041656900e+00
1.2041655775e+00
1.2041654277e+00
1.2041652842e+00
1.2041651832e+00
1.2041651597e+00
1.2041652473e+00
1.2041654816e+00
1.2041659004e+00
1.2041665447e+00
1.2041674606e+00
1.2041686977e+00
1.2041703127e+00
1.2041723661e+00
1.2041749263e+00
1.2041780654e+00
1.2041818641e+00
1.2041864062e+00
1.2041917839e+00
1.2041980920e+00
1.2042054346e+00
1.2042139187e+00
1.2042236637e+00
1.2042347957e+00
1.2042474608e+00
1.2042618201e+00
1.2042780654e+00
1.2042964129e+00
1.2043171153e+00
1.2043404464e+00
1.2043666996e+00
1.2043961523e+00
1.2044290395e+00
1.2044654927e+00
1.2045054884e+00
1.2045487723e+00
1.2045948061e+00
1.2046427107e+00
1.2046912545e+00
1.2047388624e+00
1.2047836884e+00
1.2048237143e+00
1.2048569156e+00
1.2048814211e+00
1.2048957214e+00
1.2048988080e+00
1.2048903336e+00
1.2048706345e+00
1.2048407699e+00
1.2048023849e+00
1.2047576250e+00
1.2047088873e+00
1.2046586831e+00
1.2046093826e+00
1.2045631225e+00
1.2045216392e+00
1.2044862713e+00
1.2044579094e+00
1.2044642093e+00
1.1957488422e+00
1.1959000868e+00
1.1960859462e+00
1.1963560713e+00
1.1967018301e+00
1.1971124750e+00
1.1975755443e+00
1.1980776760e+00
1.1986050551e+00
1.1991442409e+00
1.1996825146e+00
1.2002085505e+00
1.2007125644e+00
1.2011867307e+00
1.2016251034e+00
1.2020237656e+00
1.2023805634e+00
1.2026950476e+00
1.2029681044e+00
1.2032017834e+00
1.2033989169e+00
1.2035629266e+00
1.2036975029e+00
1.2038064529e+00
1.2038934754e+00
1.2039620772e+00
1.2040154451e+00
1.2040564284e+00
1.2040874866e+00
1.2041107193e+00
1.2041278619e+00
1.2041403388e+00
1.2041492829e+00
1.2041555930e+00
1.2041599586e+00
1.2041629113e+00
1.2041648458e+00
1.2041660594e+00
1.2041667668e+00
1.2041671283e+00
1.2041672572e+00
1.2041672398e+00
1.2041671381e+00
1.2041670020e+00
1.2041668704e+00
1.2041667786e+00
1.2041667581e+00
1.2041668409e+00
1.2041670594e+00
1.2041674487e+00
1.2041680471e+00
1.2041688961e+00
1.2041700422e+00
1.2041715357e+00
1.2041734330e+00
1.2041757939e+00
1.2041786848e+00
1.2041821750e+00
1.2041863404e+00
1.2041912586e+00
1.2041970141e+00
1.2042036930e+00
1.2042113906e+00
1.2042202070e+00
1.2042302588e+00
1.2042416772e+00
1.2042546235e+00
1.2042692894e+00
1.2042859138e+00
1.2043047784e+00
1.2043262160e+00
1.2043505903e+00
1.2043782807e+00
1.2044096335e+00
1.2044449140e+00
1.2044842278e+00
1.2045274497e+00
1.2045741404e+00
1.2046234906e+00
1.2046742816e+00
1.2047248998e+00
1.2047733897e+00
1.2048175758e+00
1.2048552133e+00
1.2048841995e+00
1.2049027603e+00
1.2049096687e+00
1.2049043597e+00
1.2048870540e+00
1.2048587109e+00
1.2048210059e+00
1.2047761184e+00
1.2047265998e+00
1.2046750859e+00
1.2046241576e+00
1.2045760986e+00
1.2045328376e+00
1.2044958256e+00
1.2044660783e+00
1.2044729257e+00
1.1963826518e+00
1.1965273001e+00
1.1966994708e+00
1.1969495128e+00
1.1972694864e+00
1.1976493545e+00
1.1980776760e+00
1.1985419950e+00
1.1990296401e+00
1.1995280849e+00
1.2000256773e+00
1.2005118552e+00
1.2009776752e+00
1.2014158241e+00
1.2018208954e+00
1.2021892037e+00
1.2025188330e+00
1.2028093171e+00
1.2030615343e+00
1.2032773391e+00
1.2034593938e+00
1.2036108300e+00
1.2037350907e+00
1.2038356702e+00
1.2039160095e+00
1.2039793303e+00
1.2040285937e+00
1.2040664170e+00
1.2040950848e+00
1.2041165244e+00
1.2041323481e+00
1.2041438619e+00
1.2041521194e+00
1.2041579426e+00
1.2041619744e+00
1.2041646992e+00
1.2041664863e+00
1.2041676054e+00
1.2041682586e+00
1.2041685899e+00
1.2041687076e+00
1.2041686880e+00
1.2041685913e+00
1.2041684612e+00
1.2041683358e+00
1.2041682461e+00
1.2041682225e+00
1.2041682938e+00
1.2041684906e+00
1.2041688449e+00
1.2041693918e+00
1.2041701696e+00
1.2041712203e+00
1.2041725903e+00
1.2041743290e+00
1.2041764916e+00
1.2041791350e+00
1.2041823220e+00
1.2041861159e+00
1.2041905855e+00
1.2041957996e+00
1.2042018335e+00
1.2042087645e+00
1.2042166821e+00
1.2042256863e+00
1.2042359035e+00
1.2042474883e+00
1.2042606437e+00
1.2042756240e+00
1.2042927517e+00
1.2043124107e+00
1.2043350450e+00
1.2043611265e+00
1.2043911187e+00
1.2044254074e+00
1.2044642264e+00
1.2045075625e+00
1.2045550685e+00
1.2046059849e+00
1.2046590971e+00
1.2047127345e+00
1.2047648302e+00
1.2048130368e+00
1.2048549056e+00
1.2048880908e+00
1.2049105943e+00
1.2049209567e+00
1.2049184588e+00
1.2049031796e+00
1.2048760563e+00
1.2048387491e+00
1.2047935494e+00
1.2047430978e+00
1.2046902228e+00
1.2046376391e+00
1.2045878296e+00
1.2045428406e+00
1.2045042725e+00
1.2044732070e+00
1.2044804367e+00
1.1970490490e+00
1.1971865868e+00
1.1973442518e+00
1.1975731303e+00
1.1978658722e+00
1.1982133675e+00
1.1986050551e+00
1.1990296401e+00
1.1994754346e+00
1.1999310924e+00
1.2003858634e+00
1.2008301979e+00
1.2012558338e+00
1.2016561836e+00
1.2020262326e+00
1.2023626959e+00
1.2026637639e+00
1.2029290780e+00
1.2031593951e+00
1.2033564620e+00
1.2035226762e+00
1.2036609377e+00
1.2037743649e+00
1.2038661784e+00
1.2039395006e+00
1.2039972943e+00
1.2040422479e+00
1.2040767662e+00
1.2041029227e+00
1.2041224881e+00
1.2041369241e+00
1.2041474314e+00
1.2041549634e+00
1.2041602772e+00
1.2041639526e+00
1.2041664375e+00
1.2041680633e+00
1.2041690806e+00
1.2041696696e+00
1.2041699655e+00
1.2041700637e+00
1.2041700371e+00
1.2041699379e+00
1.2041698087e+00
1.2041696824e+00
1.2041695894e+00
1.2041695562e+00
1.2041696104e+00
1.2041697794e+00
1.2041700931e+00
1.2041705833e+00
1.2041712851e+00
1.2041722367e+00
1.2041734793e+00
1.2041750581e+00
1.2041770205e+00
1.2041794179e+00
1.2041823027e+00
1.2041857306e+00
1.2041897569e+00
1.2041944407e+00
1.2041998408e+00
1.2042060239e+00
1.2042130630e+00
1.2042210503e+00
1.2042301014e+00
1.2042403744e+00
1.2042520779e+00
1.2042654929e+00
1.2042809770e+00
1.2042989757e+00
1.2043200071e+00
1.2043446425e+00
1.2043734534e+00
1.2044069467e+00
1.2044454716e+00
1.2044891186e+00
1.2045376161e+00
1.2045902407e+00
1.2046457644e+00
1.2047024472e+00
1.2047580973e+00
1.2048101958e+00
1.2048560816e+00
1.2048931902e+00
1.2049192910e+00
1.2049327448e+00
1.2049326615e+00
1.2049190523e+00
1.2048927971e+00
1.2048556246e+00
1.2048098792e+00
1.2047583703e+00
1.2047040417e+00
1.2046498072e+00
1.2045982661e+00
1.2045516312e+00
1.2045115788e+00
1.2044792918e+00
1.2044867333e+00
1.1977308525e+00
1.1978609672e+00
1.1980037664e+00
1.1982108929e+00
1.1984757559e+00
1.1987900274e+00
1.1991442409e+00
1.1995280849e+00
1.1999310924e+00
1.2003429067e+00
1.2007539153e+00
1.2011553943e+00
1.2015399769e+00
1.2019016297e+00
1.2022359101e+00
1.2025397846e+00
1.2028116924e+00
1.2030512580e+00
1.2032592241e+00
1.2034371290e+00
1.2035871833e+00
1.2037119760e+00
1.2038143568e+00
1.2038972109e+00
1.2039633819e+00
1.2040155273e+00
1.2040560916e+00
1.2040872319e+00
1.2041108326e+00
1.2041284808e+00
1.2041415054e+00
1.2041509808e+00
1.2041577750e+00
1.2041625637e+00
1.2041658763e+00
1.2041681105e+00
1.2041695706e+00
1.2041704779e+00
1.2041709991e+00
1.2041712523e+00
1.2041713272e+00
1.2041712867e+00
1.2041711808e+00
1.2041710458e+00
1.2041709139e+00
1.2041708110e+00
1.2041707629e+00
1.2041707938e+00
1.2041709296e+00
1.2041711970e+00
1.2041716254e+00
1.2041722464e+00
1.2041730942e+00
1.2041742062e+00
1.2041756215e+00
1.2041773825e+00
1.2041795323e+00
1.2041821164e+00
1.2041851793e+00
1.2041887674e+00
1.2041929255e+00
1.2041977022e+00
1.2042031484e+00
1.2042093277e+00
1.2042163197e+00
1.2042242381e+00
1.2042332398e+00
1.2042435494e+00
1.2042554705e+00
1.2042694065e+00
1.2042858605e+00
1.2043054330e+00
1.2043287891e+00
1.2043566106e+00
1.2043895170e+00
1.2044279653e+00
1.2044721375e+00
1.2045218208e+00
1.2045763132e+00
1.2046343530e+00
1.2046941183e+00
1.2047532793e+00
1.2048091382e+00
1.2048588289e+00
1.2048995645e+00
1.2049289190e+00
1.2049450650e+00
1.2049470071e+00
1.2049346647e+00
1.2049089443e+00
1.2048715940e+00
1.2048250990e+00
1.2047723637e+00
1.2047165254e+00
1.2046606093e+00
1.2046073931e+00
1.2045591701e+00
1.2045177379e+00
1.2044843123e+00
1.2044918167e+00
1.1984119360e+00
1.1985345630e+00
1.1986624431e+00
1.1988478274e+00
1.1990847480e+00
1.1993658287e+00
1.1996825146e+00
1.2000256773e+00
1.2003858634e+00
1.2007539153e+00
1.2011211482e+00
1.2014798654e+00
1.2018233997e+00
1.2021464522e+00
1.2024449828e+00
1.2027163604e+00
1.2029591339e+00
1.2031730325e+00
1.2033586752e+00
1.2035174862e+00
1.2036514057e+00
1.2037627834e+00
1.2038541379e+00
1.2039280729e+00
1.2039871072e+00
1.2040336331e+00
1.2040698169e+00
1.2040975988e+00
1.2041186478e+00
1.2041343913e+00
1.2041460050e+00
1.2041544561e+00
1.2041605105e+00
1.2041647779e+00
1.2041677237e+00
1.2041697085e+00
1.2041709981e+00
1.2041717947e+00
1.2041722424e+00
1.2041724509e+00
1.2041724966e+00
1.2041724390e+00
1.2041723201e+00
1.2041721755e+00
1.2041720316e+00
1.2041719141e+00
1.2041718449e+00
1.2041718473e+00
1.2041719439e+00
1.2041721598e+00
1.2041725210e+00
1.2041730561e+00
1.2041737957e+00
1.2041747724e+00
1.2041760211e+00
1.2041775772e+00
1.2041794779e+00
1.2041817592e+00
1.2041844579e+00
1.2041876080e+00
1.2041912445e+00
1.2041954016e+00
1.2042001204e+00
1.2042054509e+00
1.2042114676e+00
1.2042182785e+00
1.2042260484e+00
1.2042350151e+00
1.2042455150e+00
1.2042579953e+00
1.2042730256e+00
1.2042912862e+00
1.2043135402e+00
1.2043405752e+00
1.2043731175e+00
1.2044117239e+00
1.2044566509e+00
1.2045077332e+00
1.2045642648e+00
1.2046249396e+00
1.2046878292e+00
1.2047504596e+00
1.2048099457e+00
1.2048632150e+00
1.2049072779e+00
1.2049395119e+00
1.2049579533e+00
1.2049614887e+00
1.2049500246e+00
1.2049244572e+00
1.2048866458e+00
1.2048391506e+00
1.2047850599e+00
1.2047276161e+00
1.2046700312e+00
1.2046151659e+00
1.2045654518e+00
1.2045227238e+00
1.2044882720e+00
1.2044956795e+00
1.1990778571e+00
1.1991930691e+00
1.1993063573e+00
1.1994704093e+00
1.1996800059e+00
1.1999285479e+00
1.2002085505e+00
1.2005118552e+00
1.2008301979e+00
1.2011553943e+00
1.2014798654e+00
1.2017967251e+00
1.2021001746e+00
1.2023854583e+00
1.2026490891e+00
1.2028886819e+00
1.2031030235e+00
1.2032918263e+00
1.2034556917e+00
1.2035958399e+00
1.2037140258e+00
1.2038122952e+00
1.2038929027e+00
1.2039581246e+00
1.2040102067e+00
1.2040512434e+00
1.2040831630e+00
1.2041076636e+00
1.2041262306e+00
1.2041401119e+00
1.2041503544e+00
1.2041578019e+00
1.2041631377e+00
1.2041668920e+00
1.2041694816e+00
1.2041712182e+00
1.2041723414e+00
1.2041730246e+00
1.2041733996e+00
1.2041735588e+00
1.2041735735e+00
1.2041734933e+00
1.2041733586e+00
1.2041731981e+00
1.2041730383e+00
1.2041729000e+00
1.2041728051e+00
1.2041727729e+00
1.2041728253e+00
1.2041729838e+00
1.2041732725e+00
1.2041737163e+00
1.2041743426e+00
1.2041751796e+00
1.2041762568e+00
1.2041776045e+00
1.2041792520e+00
1.2041812282e+00
1.2041835595e+00
1.2041862709e+00
1.2041893846e+00
1.2041929247e+00
1.2041969189e+00
1.2042014101e+00
1.2042064642e+00
1.2042121913e+00
1.2042187628e+00
1.2042264383e+00
1.2042355866e+00
1.2042467076e+00
1.2042604376e+00
1.2042775422e+00