# vtk DataFile Version 2.0
Blank
ASCII
DATASET STRUCTURED_GRID
DIMENSIONS 101 101 2
POINTS 20402 float
0.0000000000e+00 0.0000000000e+00 0.0000000000e+00
1.0000000000e-02 0.0000000000e+00 0.0000000000e+00
2.0000000000e-02 0.0000000000e+00 0.0000000000e+00
3.0000000000e-02 0.0000000000e+00 0.0000000000e+00
4.0000000000e-02 0.0000000000e+00 0.0000000000e+00
5.0000000000e-02 0.0000000000e+00 0.0000000000e+00
6.0000000000e-02 0.0000000000e+00 0.0000000000e+00
7.0000000000e-02 0.0000000000e+00 0.0000000000e+00
8.0000000000e-02 0.0000000000e+00 0.0000000000e+00
9.0000000000e-02 0.0000000000e+00 0.0000000000e+00
1.0000000000e-01 0.0000000000e+00 0.0000000000e+00
1.1000000000e-01 0.0000000000e+00 0.0000000000e+00
1.2000000000e-01 0.0000000000e+00 0.0000000000e+00
1.3000000000e-01 0.0000000000e+00 0.0000000000e+00
1.4000000000e-01 0.0000000000e+00 0.0000000000e+00
1.5000000000e-01 0.0000000000e+00 0.0000000000e+00
1.6000000000e-01 0.0000000000e+00 0.0000000000e+00
1.7000000000e-01 0.0000000000e+00 0.0000000000e+00
1.8000000000e-01 0.0000000000e+00 0.0000000000e+00
1.9000000000e-01 0.0000000000e+00 0.0000000000e+00
2.0000000000e-01 0.0000000000e+00 0.0000000000e+00
2.1000000000e-01 0.0000000000e+00 0.0000000000e+00
2.2000000000e-01 0.0000000000e+00 0.0000000000e+00
2.3000000000e-01 0.0000000000e+00 0.0000000000e+00
2.4000000000e-01 0.0000000000e+00 0.0000000000e+00
2.5000000000e-01 0.0000000000e+00 0.0000000000e+00
2.6000000000e-01 0.0000000000e+00 0.0000000000e+00
2.7000000000e-01 0.0000000000e+00 0.0000000000e+00
2.8000000000e-01 0.0000000000e+00 0.0000000000e+00
2.9000000000e-01 0.0000000000e+00 0.0000000000e+00
3.0000000000e-01 0.0000000000e+00 0.0000000000e+00
3.1000000000e-01 0.0000000000e+00 0.0000000000e+00
3.2000000000e-01 0.0000000000e+00 0.0000000000e+00
3.3000000000e-01 0.0000000000e+00 0.0000000000e+00
3.4000000000e-01 0.0000000000e+00 0.0000000000e+00
3.5000000000e-01 0.0000000000e+00 0.0000000000e+00
3.6000000000e-01 0.0000000000e+00 0.0000000000e+00
3.7000000000e-01 0.0000000000e+00 0.0000000000e+00
3.8000000000e-01 0.0000000000e+00 0.0000000000e+00
3.9000000000e-01 0.0000000000e+00 0.0000000000e+00
4.0000000000e-01 0.0000000000e+00 0.0000000000e+00
4.1000000000e-01 0.0000000000e+00 0.0000000000e+00
4.2000000000e-01 0.0000000000e+00 0.0000000000e+00
4.3000000000e-01 0.0000000000e+00 0.0000000000e+00
4.4000000000e-01 0.0000000000e+00 0.0000000000e+00
4.5000000000e-01 0.0000000000e+00 0.0000000000e+00
4.6000000000e-01 0.0000000000e+00 0.0000000000e+00
4.7000000000e-01 0.0000000000e+00 0.0000000000e+00
4.8000000000e-01 0.0000000000e+00 0.0000000000e+00
4.9000000000e-01 0.0000000000e+00 0.0000000000e+00
5.0000000000e-01 0.0000000000e+00 0.0000000000e+00
5.1000000000e-01 0.0000000000e+00 0.0000000000e+00
5.2000000000e-01 0.0000000000e+00 0.0000000000e+00
5.3000000000e-01 0.0000000000e+00 0.0000000000e+00
5.4000000000e-01 0.0000000000e+00 0.0000000000e+00
5.5000000000e-01 0.0000000000e+00 0.0000000000e+00
5.6000000000e-01 0.0000000000e+00 0.0000000000e+00
5.7000000000e-01 0.0000000000e+00 0.0000000000e+00
5.8000000000e-01 0.0000000000e+00 0.0000000000e+00
5.9000000000e-01 0.0000000000e+00 0.0000000000e+00
6.0000000000e-01 0.0000000000e+00 0.0000000000e+00
6.1000000000e-01 0.0000000000e+00 0.0000000000e+00
6.2000000000e-01 0.0000000000e+00 0.0000000000e+00
6.3000000000e-01 0.0000000000e+00 0.0000000000e+00
6.4000000000e-01 0.0000000000e+00 0.0000000000e+00
6.5000000000e-01 0.0000000000e+00 0.0000000000e+00
6.6000000000e-01 0.0000000000e+00 0.0000000000e+00
6.7000000000e-01 0.0000000000e+00 0.0000000000e+00
6.8000000000e-01 0.0000000000e+00 0.0000000000e+00
6.9000000000e-01 0.0000000000e+00 0.0000000000e+00
7.0000000000e-01 0.0000000000e+00 0.0000000000e+00
7.1000000000e-01 0.0000000000e+00 0.0000000000e+00
7.2000000000e-01 0.0000000000e+00 0.0000000000e+00
7.3000000000e-01 0.0000000000e+00 0.0000000000e+00
7.4000000000e-01 0.0000000000e+00 0.0000000000e+00
7.5000000000e-01 0.0000000000e+00 0.0000000000e+00
7.6000000000e-01 0.0000000000e+00 0.0000000000e+00
7.7000000000e-01 0.0000000000e+00 0.0000000000e+00
7.8000000000e-01 0.0000000000e+00 0.0000000000e+00
7.9000000000e-01 0.0000000000e+00 0.0000000000e+00
8.0000000000e-01 0.0000000000e+00 0.0000000000e+00
8.1000000000e-01 0.0000000000e+00 0.0000000000e+00
8.2000000000e-01 0.0000000000e+00 0.0000000000e+00
8.3000000000e-01 0.0000000000e+00 0.0000000000e+00
8.4000000000e-01 0.0000000000e+00 0.0000000000e+00
8.5000000000e-01 0.0000000000e+00 0.0000000000e+00
8.6000000000e-01 0.0000000000e+00 0.0000000000e+00
8.7000000000e-01 0.0000000000e+00 0.0000000000e+00
8.8000000000e-01 0.0000000000e+00 0.0000000000e+00
8.9000000000e-01 0.0000000000e+00 0.0000000000e+00
9.0000000000e-01 0.0000000000e+00 0.0000000000e+00
9.1000000000e-01 0.0000000000e+00 0.0000000000e+00
9.2000000000e-01 0.0000000000e+00 0.0000000000e+00
9.3000000000e-01 0.0000000000e+00 0.0000000000e+00
9.4000000000e-01 0.0000000000e+00 0.0000000000e+00
9.5000000000e-01 0.0000000000e+00 0.0000000000e+00
9.6000000000e-01 0.0000000000e+00 0.0000000000e+00
9.7000000000e-01 0.0000000000e+00 0.0000000000e+00
9.8000000000e-01 0.0000000000e+00 0.0000000000e+00
9.9000000000e-01 0.0000000000e+00 0.0000000000e+00
1.0000000000e+00 0.0000000000e+00 0.0000000000e+00
0.0000000000e+00 1.0000000000e-02 0.0000000000e+00
1.0000000000e-02 1.0000000000e-02 0.0000000000e+00
2.0000000000e-02 1.0000000000e-02 0.0000000000e+00
3.0000000000e-02 1.0000000000e-02 0.0000000000e+00
4.0000000000e-02 1.0000000000e-02 0.0000000000e+00
5.0000000000e-02 1.0000000000e-02 0.0000000000e+00
6.0000000000e-02 1.0000000000e-02 0.0000000000e+00
7.0000000000e-02 1.0000000000e-02 0.0000000000e+00
8.0000000000e-02 1.0000000000e-02 0.0000000000e+00
9.0000000000e-02 1.0000000000e-02 0.0000000000e+00
1.0000000000e-01 1.0000000000e-02 0.0000000000e+00
1.1000000000e-01 1.0000000000e-02 0.0000000000e+00
1.2000000000e-01 1.0000000000e-02 0.0000000000e+00
1.3000000000e-01 1.0000000000e-02 0.0000000000e+00
1.4000000000e-01 1.0000000000e-02 0.0000000000e+00
1.5000000000e-01 1.0000000000e-02 0.0000000000e+00
1.6000000000e-01 1.0000000000e-02 0.0000000000e+00
1.7000000000e-01 1.0000000000e-02 0.0000000000e+00
1.8000000000e-01 1.0000000000e-02 0.0000000000e+00
1.9000000000e-01 1.0000000000e-02 0.0000000000e+00
2.0000000000e-01 1.0000000000e-02 0.0000000000e+00
2.1000000000e-01 1.0000000000e-02 0.0000000000e+00
2.2000000000e-01 1.0000000000e-02 0.0000000000e+00
2.3000000000e-01 1.0000000000e-02 0.0000000000e+00
2.4000000000e-01 1.0000000000e-02 0.0000000000e+00
2.5000000000e-01 1.0000000000e-02 0.0000000000e+00
2.6000000000e-01 1.0000000000e-02 0.0000000000e+00
2.7000000000e-01 1.0000000000e-02 0.0000000000e+00
2.8000000000e-01 1.0000000000e-02 0.0000000000e+00
2.9000000000e-01 1.0000000000e-02 0.0000000000e+00
3.0000000000e-01 1.0000000000e-02 0.0000000000e+00
3.1000000000e-01 1.0000000000e-02 0.0000000000e+00
3.2000000000e-01 1.0000000000e-02 0.0000000000e+00
3.3000000000e-01 1.0000000000e-02 0.0000000000e+00
3.4000000000e-01 1.0000000000e-02 0.0000000000e+00
3.5000000000e-01 1.0000000000e-02 0.0000000000e+00
3.6000000000e-01 1.0000000000e-02 0.0000000000e+00
3.7000000000e-01 1.0000000000e-02 0.0000000000e+00
3.8000000000e-01 1.0000000000e-02 0.0000000000e+00
3.9000000000e-01 1.0000000000e-02 0.0000000000e+00
4.0000000000e-01 1.0000000000e-02 0.0000000000e+00
4.1000000000e-01 1.0000000000e-02 0.0000000000e+00
4.2000000000e-01 1.0000000000e-02 0.0000000000e+00
4.3000000000e-01 1.0000000000e-02 0.0000000000e+00
4.4000000000e-01 1.0000000000e-02 0.0000000000e+00
4.5000000000e-01 1.0000000000e-02 0.0000000000e+00
4.6000000000e-01 1.0000000000e-02 0.0000000000e+00
4.7000000000e-01 1.0000000000e-02 0.0000000000e+00
4.8000000000e-01 1.0000000000e-02 0.0000000000e+00
4.9000000000e-01 1.0000000000e-02 0.0000000000e+00
5.0000000000e-01 1.0000000000e-02 0.0000000000e+00
5.1000000000e-01 1.0000000000e-02 0.0000000000e+00
5.2000000000e-01 1.0000000000e-02 0.0000000000e+00
5.3000000000e-01 1.0000000000e-02 0.0000000000e+00
5.4000000000e-01 1.0000000000e-02 0.0000000000e+00
5.5000000000e-01 1.0000000000e-02 0.0000000000e+00
5.6000000000e-01 1.0000000000e-02 0.0000000000e+00
5.7000000000e-01 1.0000000000e-02 0.0000000000e+00
5.8000000000e-01 1.0000000000e-02 0.0000000000e+00
5.9000000000e-01 1.0000000000e-02 0.0000000000e+00
6.0000000000e-01 1.0000000000e-02 0.0000000000e+00
6.1000000000e-01 1.0000000000e-02 0.0000000000e+00
6.2000000000e-01 1.0000000000e-02 0.0000000000e+00
6.3000000000e-01 1.0000000000e-02 0.0000000000e+00
6.4000000000e-01 1.0000000000e-02 0.0000000000e+00
6.5000000000e-01 1.0000000000e-02 0.0000000000e+00
6.6000000000e-01 1.0000000000e-02 0.0000000000e+00
6.7000000000e-01 1.0000000000e-02 0.0000000000e+00
6.8000000000e-01 1.0000000000e-02 0.0000000000e+00
6.9000000000e-01 1.0000000000e-02 0.0000000000e+00
7.0000000000e-01 1.0000000000e-02 0.0000000000e+00
7.1000000000e-01 1.0000000000e-02 0.0000000000e+00
7.2000000000e-01 1.0000000000e-02 0.0000000000e+00
7.3000000000e-01 1.0000000000e-02 0.0000000000e+00
7.4000000000e-01 1.0000000000e-02 0.0000000000e+00
7.5000000000e-01 1.0000000000e-02 0.0000000000e+00
7.6000000000e-01 1.0000000000e-02 0.0000000000e+00
7.7000000000e-01 1.0000000000e-02 0.0000000000e+00
7.8000000000e-01 1.0000000000e-02 0.0000000000e+00
7.9000000000e-01 1.0000000000e-02 0.0000000000e+00
8.0000000000e-01 1.0000000000e-02 0.0000000000e+00
8.1000000000e-01 1.0000000000e-02 0.0000000000e+00
8.2000000000e-01 1.0000000000e-02 0.0000000000e+00
8.3000000000e-01 1.0000000000e-02 0.0000000000e+00
8.4000000000e-01 1.0000000000e-02 0.0000000000e+00
8.5000000000e-01 1.0000000000e-02 0.0000000000e+00
8.6000000000e-01 1.0000000000e-02 0.0000000000e+00
8.7000000000e-01 1.0000000000e-02 0.0000000000e+00
8.8000000000e-01 1.0000000000e-02 0.0000000000e+00
8.9000000000e-01 1.0000000000e-02 0.0000000000e+00
9.0000000000e-01 1.0000000000e-02 0.0000000000e+00
9.1000000000e-01 1.0000000000e-02 0.0000000000e+00
9.2000000000e-01 1.0000000000e-02 0.0000000000e+00
[...]
CELL_DATA 10000

SCALARS massDensity float
LOOKUP_TABLE default
1.1990022575e+00
1.1990402946e+00
1.1990979973e+00
1.1991845227e+00
1.1992983525e+00
1.1994375781e+00
1.1995999586e+00
1.1997829687e+00
1.1999838609e+00
1.2001997217e+00
1.2004275421e+00
1.2006642770e+00
1.2009069137e+00
1.2011525254e+00
1.2013983301e+00
1.2016417311e+00
1.2018803602e+00
1.2021121021e+00
1.2023351199e+00
1.2025478626e+00
1.2027490740e+00
1.2029377846e+00
1.2031133066e+00
1.2032752144e+00
1.2034233296e+00
1.2035576930e+00
1.2036785443e+00
1.2037862906e+00
1.2038814831e+00
1.2039647856e+00
1.2040369522e+00
1.2040987981e+00
1.2041511796e+00
1.2041949698e+00
1.2042310428e+00
1.2042602541e+00
1.2042834302e+00
1.2043013547e+00
1.2043147622e+00
1.2043243303e+00
1.2043306775e+00
1.2043343598e+00
1.2043358727e+00
1.2043356502e+00
1.2043340698e+00
1.2043314543e+00
1.2043280772e+00
1.2043241662e+00
1.2043199094e+00
1.2043154584e+00
1.2043109347e+00
1.2043064326e+00
1.2043020246e+00
1.2042977638e+00
1.2042936885e+00
1.2042898242e+00
1.2042861865e+00
1.2042827829e+00
1.2042796153e+00
1.2042766806e+00
1.2042739724e+00
1.2042714820e+00
1.2042691989e+00
1.2042671116e+00
1.2042652083e+00
1.2042634766e+00
1.2042619044e+00
1.2042604798e+00
1.2042591914e+00
1.2042580281e+00
1.2042569795e+00
1.2042560358e+00
1.2042551876e+00
1.2042544262e+00
1.2042537433e+00
1.2042531313e+00
1.2042525831e+00
1.2042520918e+00
1.2042516514e+00
1.2042512562e+00
1.2042509012e+00
1.2042505820e+00
1.2042502953e+00
1.2042500387e+00
1.2042498111e+00
1.2042496133e+00
1.2042494480e+00
1.2042493206e+00
1.2042492396e+00
1.2042492175e+00
1.2042492716e+00
1.2042494258e+00
1.2042497118e+00
1.2042501733e+00
1.2042508687e+00
1.2042518786e+00
1.2042533115e+00
1.2042553098e+00
1.2042580402e+00
1.2042471549e+00
1.1990402946e+00
1.1990800064e+00
1.1991383391e+00
1.1992249255e+00
1.1993383777e+00
1.1994768790e+00
1.1996382432e+00
1.1998199856e+00
1.2000193796e+00
1.2002335320e+00
1.2004594417e+00
1.2006940762e+00
1.2009344269e+00
1.2011775791e+00
1.2014207560e+00
1.2016613759e+00
1.2018970815e+00
1.2021257787e+00
1.2023456495e+00
1.2025551726e+00
1.2027531195e+00
1.2029385591e+00
1.2031108395e+00
1.2032695796e+00
1.2034146413e+00
1.2035461121e+00
1.2036642713e+00
1.2037695685e+00
1.2038625882e+00
1.2039440268e+00
1.2040146599e+00
1.2040753211e+00
1.2041268731e+00
1.2041701913e+00
1.2042061404e+00
1.2042355628e+00
1.2042592622e+00
1.2042779967e+00
1.2042924687e+00
1.2043033229e+00
1.2043111412e+00
1.2043164446e+00
1.2043196917e+00
1.2043212839e+00
1.2043215660e+00
1.2043208332e+00
1.2043193329e+00
1.2043172718e+00
1.2043148189e+00
1.2043121120e+00
1.2043092604e+00
1.2043063506e+00
1.2043034486e+00
1.2043006050e+00
1.2042978559e+00
1.2042952274e+00
1.2042927363e+00
1.2042903932e+00
1.2042882027e+00
1.2042861659e+00
1.2042842805e+00
1.2042825422e+00
1.2042809450e+00
1.2042794821e+00
1.2042781458e+00
1.2042769282e+00
1.2042758212e+00
1.2042748170e+00
1.2042739077e+00
1.2042730858e+00
1.2042723442e+00
1.2042716760e+00
1.2042710748e+00
1.2042705345e+00
1.2042700494e+00
1.2042696143e+00
1.2042692242e+00
1.2042688745e+00
1.2042685612e+00
1.2042682803e+00
1.2042680287e+00
1.2042678036e+00
1.2042676030e+00
1.2042674254e+00
1.2042672706e+00
1.2042671392e+00
1.2042670334e+00
1.2042669568e+00
1.2042669152e+00
1.2042669164e+00
1.2042669715e+00
1.2042670941e+00
1.2042673025e+00
1.2042676191e+00
1.2042680719e+00
1.2042686932e+00
1.2042695175e+00
1.2042705717e+00
1.2042718499e+00
1.2042581954e+00
1.1990979973e+00
1.1991383391e+00
1.1991965868e+00
1.1992826501e+00
1.1993952045e+00
1.1995324838e+00
1.1996923536e+00
1.1998723670e+00
1.2000698407e+00
1.2002819119e+00
1.2005056179e+00
1.2007379519e+00
1.2009759389e+00
1.2012166844e+00
1.2014574400e+00
1.2016956385e+00
1.2019289444e+00
1.2021552728e+00
1.2023728220e+00
1.2025800756e+00
1.2027758173e+00
1.2029591181e+00
1.2031293358e+00
1.2032860909e+00
1.2034292540e+00
1.2035589143e+00
1.2036753597e+00
1.2037790421e+00
1.2038705539e+00
1.2039505939e+00
1.2040199443e+00
1.2040794395e+00
1.2041299466e+00
1.2041723392e+00
1.2042074830e+00
1.2042362157e+00
1.2042593382e+00
1.2042776011e+00
1.2042917008e+00
1.2043022720e+00
1.2043098887e+00
1.2043150606e+00
1.2043182379e+00
1.2043198107e+00
1.2043201157e+00
1.2043194380e+00
1.2043180181e+00
1.2043160546e+00
1.2043137113e+00
1.2043111200e+00
1.2043083864e+00
1.2043055930e+00
1.2043028040e+00
1.2043000673e+00
1.2042974184e+00
1.2042948822e+00
1.2042924757e+00
1.2042902086e+00
1.2042880865e+00
1.2042861103e+00
1.2042842784e+00
1.2042825870e+00
1.2042810308e+00
1.2042796032e+00
1.2042782974e+00
1.2042771059e+00
1.2042760211e+00
1.2042750356e+00
1.2042741420e+00
1.2042733331e+00
1.2042726021e+00
1.2042719425e+00
1.2042713482e+00
1.2042708133e+00
1.2042703324e+00
1.2042699004e+00
1.2042695127e+00
1.2042691649e+00
1.2042688531e+00
1.2042685739e+00
1.2042683242e+00
1.2042681017e+00
1.2042679042e+00
1.2042677310e+00
1.2042675814e+00
1.2042674563e+00
1.2042673574e+00
1.2042672879e+00
1.2042672524e+00
1.2042672573e+00
1.2042673105e+00
1.2042674225e+00
1.2042676050e+00
1.2042678716e+00
1.2042682361e+00
1.2042687099e+00
1.2042692957e+00
1.2042699755e+00
1.2042706849e+00
1.2042556279e+00
1.1991845227e+00
1.1992249255e+00
1.1992826501e+00
1.1993676853e+00
1.1994787323e+00
1.1996140719e+00
1.1997716124e+00
1.1999489622e+00
1.2001434823e+00
1.2003523661e+00
1.2005726935e+00
1.2008015112e+00
1.2010358828e+00
1.2012729615e+00
1.2015100304e+00
1.2017445624e+00
1.2019742453e+00
1.2021970257e+00
1.2024111168e+00
1.2026150253e+00
1.2028075433e+00
1.2029877578e+00
1.2031550306e+00
1.2033089930e+00
1.2034495168e+00
1.2035766989e+00
1.2036908269e+00
1.2037923581e+00
1.2038818835e+00
1.2039601053e+00
1.2040278028e+00
1.2040858115e+00
1.2041349932e+00
1.2041762200e+00
1.2042103497e+00
1.2042382152e+00
1.2042606071e+00
1.2042782680e+00
1.2042918822e+00
1.2043020746e+00
1.2043094059e+00
1.2043143752e+00
1.2043174194e+00
1.2043189187e+00
1.2043191977e+00
1.2043185327e+00
1.2043171542e+00
1.2043152540e+00
1.2043129882e+00
1.2043104837e+00
1.2043078409e+00
1.2043051393e+00
1.2043024395e+00
1.2042997881e+00
1.2042972187e+00
1.2042947556e+00
1.2042924150e+00
1.2042902070e+00
1.2042881368e+00
1.2042862060e+00
1.2042844132e+00
1.2042827553e+00
1.2042812272e+00
1.2042798232e+00
1.2042785368e+00
1.2042773610e+00
1.2042762889e+00
1.2042753132e+00
1.2042744271e+00
1.2042736238e+00
1.2042728966e+00
1.2042722395e+00
1.2042716464e+00
1.2042711118e+00
1.2042706306e+00
1.2042701976e+00
1.2042698087e+00
1.2042694594e+00
1.2042691463e+00
1.2042688658e+00
1.2042686153e+00
1.2042683923e+00
1.2042681951e+00
1.2042680225e+00
1.2042678742e+00
1.2042677505e+00
1.2042676529e+00
1.2042675835e+00
1.2042675459e+00
1.2042675444e+00
1.2042675847e+00
1.2042676729e+00
1.2042678159e+00
1.2042680196e+00
1.2042682880e+00
1.2042686188e+00
1.2042689990e+00
1.2042693940e+00
1.2042697332e+00
1.2042537815e+00
1.1992983525e+00
1.1993383777e+00
1.1993952045e+00
1.1994787323e+00
1.1995876900e+00
1.1997203940e+00
1.1998748097e+00
1.2000485966e+00
1.2002391840e+00
1.2004438214e+00
1.2006596598e+00
1.2008838006e+00
1.2011133748e+00
1.2013455848e+00
1.2015777731e+00
1.2018074522e+00
1.2020323587e+00
1.2022504677e+00
1.2024600297e+00
1.2026595691e+00
1.2028479041e+00
1.2030241310e+00
1.2031876282e+00
1.2033380299e+00
1.2034752177e+00
1.2035992868e+00
1.2037105300e+00
1.2038094001e+00
1.2038964895e+00
1.2039724938e+00
1.2040381907e+00
1.2040944070e+00
1.2041420002e+00
1.2041818312e+00
1.2042147507e+00
1.2042415782e+00
1.2042630944e+00
1.2042800273e+00
1.2042930491e+00
1.2043027692e+00
1.2043097355e+00
1.2043144318e+00
1.2043172828e+00
1.2043186543e+00
1.2043188604e+00
1.2043181650e+00
1.2043167901e+00
1.2043149179e+00
1.2043126979e+00
1.2043102502e+00
1.2043076709e+00
1.2043050348e+00
1.2043024003e+00
1.2042998108e+00
1.2042972993e+00
1.2042948884e+00
1.2042925942e+00
1.2042904264e+00
1.2042883904e+00
1.2042864879e+00
1.2042847183e+00
1.2042830784e+00
1.2042815641e+00
1.2042801700e+00
1.2042788902e+00
1.2042777181e+00
1.2042766474e+00
1.2042756711e+00
1.2042747828e+00
1.2042739760e+00
1.2042732444e+00
1.2042725820e+00
1.2042719832e+00
1.2042714426e+00
1.2042709551e+00
1.2042705161e+00
1.2042701210e+00
1.2042697660e+00
1.2042694474e+00
1.2042691620e+00
1.2042689069e+00
1.2042686800e+00
1.2042684793e+00
1.2042683036e+00
1.2042681523e+00
1.2042680255e+00
1.2042679237e+00
1.2042678486e+00
1.2042678020e+00
1.2042677870e+00
1.2042678063e+00
1.2042678635e+00
1.2042679606e+00
1.2042680989e+00
1.2042682753e+00
1.2042684812e+00
1.2042686969e+00
1.2042688868e+00
1.2042689909e+00
1.2042524679e+00
1.1994375781e+00
1.1994768790e+00
1.1995324838e+00
1.1996140719e+00
1.1997203940e+00
1.1998498170e+00
1.2000003569e+00
1.2001697466e+00
1.2003554802e+00
1.2005548907e+00
1.2007651977e+00
1.2009835879e+00
1.2012072574e+00
1.2014334877e+00
1.2016596779e+00
1.2018834081e+00
1.2021024593e+00
1.2023148601e+00
1.2025188917e+00
1.2027131176e+00
1.2028963739e+00
1.2030677825e+00
1.2032267292e+00
1.2033728630e+00
1.2035060650e+00
1.2036264374e+00
1.2037342669e+00
1.2038300072e+00
1.2039142413e+00
1.2039876615e+00
1.2040510333e+00
1.2041051767e+00
1.2041509350e+00
1.2041891592e+00
1.2042206840e+00
1.2042463166e+00
1.2042668203e+00
1.2042829088e+00
1.2042952364e+00
1.2043043976e+00
1.2043109224e+00
1.2043152802e+00
1.2043178790e+00
1.2043190719e+00
1.2043191583e+00
1.2043183917e+00
1.2043169821e+00
1.2043151036e+00
1.2043128970e+00
1.2043104766e+00
1.2043079323e+00
1.2043053354e+00
1.2043027404e+00
1.2043001892e+00
1.2042977120e+00
1.2042953314e+00
1.2042930621e+00
1.2042909142e+00
1.2042888926e+00
1.2042869998e+00
1.2042852350e+00
1.2042835960e+00
1.2042820790e+00
1.2042806792e+00
1.2042793910e+00
1.2042782087e+00
1.2042771259e+00
1.2042761366e+00
1.2042752343e+00
1.2042744131e+00
1.2042736668e+00
1.2042729898e+00
1.2042723766e+00
1.2042718220e+00
1.2042713209e+00
1.2042708689e+00
1.2042704616e+00
1.2042700951e+00
1.2042697658e+00
1.2042694705e+00
1.2042692063e+00
1.2042689709e+00
1.2042687625e+00
1.2042685793e+00
1.2042684206e+00
1.2042682859e+00
1.2042681753e+00
1.2042680891e+00
1.2042680286e+00
1.2042679946e+00
1.2042679884e+00
1.2042680106e+00
1.2042680609e+00
1.2042681364e+00
1.2042682311e+00
1.2042683333e+00
1.2042684229e+00
1.2042684687e+00
1.2042684253e+00
1.2042515326e+00
1.1995999586e+00
1.1996382432e+00
1.1996923536e+00
1.1997716124e+00
1.1998748097e+00
1.2000003569e+00
1.2001463419e+00
1.2003105652e+00
1.2004906114e+00
1.2006838923e+00
1.2008877259e+00
1.2010993785e+00
1.2013161430e+00
1.2015353738e+00
1.2017545568e+00
1.2019713333e+00
1.2021835558e+00
1.2023892988e+00
1.2025868978e+00
1.2027749461e+00
1.2029523173e+00
1.2031181483e+00
1.2032718478e+00
1.2034130682e+00
1.2035417015e+00
1.2036578446e+00
1.2037617863e+00
1.2038539697e+00
1.2039349734e+00
1.2040054751e+00
1.2040662318e+00
1.2041180461e+00
1.2041617493e+00
1.2041981736e+00
1.2042281389e+00
1.2042524322e+00
1.2042718006e+00
1.2042869371e+00
1.2042984789e+00
1.2043070000e+00
1.2043130139e+00
1.2043169709e+00
1.2043192639e+00
1.2043202289e+00
1.2043201526e+00
1.2043192744e+00
1.2043177942e+00
1.2043158752e+00
1.2043136508e+00
1.2043112273e+00
1.2043086900e+00
1.2043061049e+00
1.2043035238e+00
1.2043009852e+00
1.2042985185e+00
1.2042961442e+00
1.2042938773e+00
1.2042917267e+00
1.2042896983e+00
1.2042877940e+00
1.2042860142e+00
1.2042843565e+00
1.2042828181e+00
1.2042813944e+00
1.2042800808e+00
1.2042788716e+00
1.2042777613e+00
1.2042767439e+00
1.2042758137e+00
1.2042749647e+00
1.2042741914e+00
1.2042734882e+00
1.2042728498e+00
1.2042722710e+00
1.2042717471e+00
1.2042712736e+00
1.2042708461e+00
1.2042704608e+00
1.2042701140e+00
1.2042698025e+00
1.2042695234e+00
1.2042692741e+00
1.2042690525e+00
1.2042688569e+00
1.2042686859e+00
1.2042685386e+00
1.2042684142e+00
1.2042683127e+00
1.2042682337e+00
1.2042681773e+00
1.2042681427e+00
1.2042681290e+00
1.2042681337e+00
1.2042681523e+00
1.2042681769e+00
1.2042681957e+00
1.2042681904e+00
1.2042681361e+00
1.2042679996e+00
1.2042508631e+00
1.1997829687e+00
1.1998199856e+00
1.1998723670e+00
1.1999489622e+00
1.2000485966e+00
1.2001697466e+00
1.2003105652e+00
1.2004689447e+00
1.2006425532e+00
1.2008289097e+00
1.2010254227e+00
1.2012294694e+00
1.2014384306e+00
1.2016497651e+00
1.2018610364e+00
1.2020699761e+00
1.2022744987e+00
1.2024727503e+00
1.2026631103e+00
1.2028442237e+00
1.2030149900e+00
1.2031745795e+00
1.2033224111e+00
1.2034581546e+00
1.2035817003e+00
1.2036931504e+00
1.2037927835e+00
1.2038810388e+00
1.2039584792e+00
1.2040257727e+00
1.2040836568e+00
1.2041329203e+00
1.2041743729e+00
1.2042088301e+00
1.2042370889e+00
1.2042599180e+00
1.2042780411e+00
1.2042921319e+00
1.2043028049e+00
1.2043106151e+00
1.2043160545e+00
1.2043195558e+00
1.2043214927e+00
1.2043221860e+00
1.2043219059e+00
1.2043208796e+00
1.2043192937e+00
1.2043173024e+00
1.2043150291e+00
1.2043125739e+00
1.2043100151e+00
1.2043074151e+00
1.2043048210e+00
1.2043022697e+00
1.2042997878e+00
1.2042973956e+00
1.2042951063e+00
1.2042929297e+00
1.2042908708e+00
1.2042889325e+00
1.2042871150e+00
1.2042854172e+00
1.2042838360e+00
1.2042823682e+00
1.2042810091e+00
1.2042797541e+00
1.2042785978e+00
1.2042775350e+00
1.2042765601e+00
1.2042756677e+00
1.2042748523e+00
1.2042741088e+00
1.2042734318e+00
1.2042728165e+00
1.2042722582e+00
1.2042717523e+00
1.2042712947e+00
1.2042708813e+00
1.2042705085e+00
1.2042701729e+00
1.2042698715e+00
1.2042696014e+00
1.2042693604e+00
1.2042691463e+00
1.2042689574e+00
1.2042687922e+00
1.2042686494e+00
1.2042685280e+00
1.2042684270e+00
1.2042683449e+00
1.2042682805e+00
1.2042682310e+00
1.2042681930e+00
1.2042681608e+00
1.2042681267e+00
1.2042680790e+00
1.2042680028e+00
1.2042678783e+00
1.2042676826e+00
1.2042503813e+00
1.1999838609e+00
1.2000193796e+00
1.2000698407e+00
1.2001434823e+00
1.2002391840e+00
1.2003554802e+00
1.2004906114e+00
1.2006425532e+00
1.2008090841e+00
1.2009878199e+00
1.2011762899e+00
1.2013719710e+00
1.2015723635e+00
1.2017750187e+00
1.2019776083e+00
1.2021779418e+00
1.2023740235e+00
1.2025640588e+00
1.2027464953e+00
1.2029200167e+00
1.2030835688e+00
1.2032363419e+00
1.2033777815e+00
1.2035075616e+00
1.2036255834e+00
1.2037319412e+00
1.2038269126e+00
1.2039109211e+00
1.2039845203e+00
1.2040483571e+00
1.2041031543e+00
1.2041496770e+00
1.2041887166e+00
1.2042210632e+00
1.2042474936e+00
1.2042687508e+00
1.2042855371e+00
1.2042985010e+00
1.2043082359e+00
1.2043152730e+00
1.2043200843e+00
1.2043230810e+00
1.2043246191e+00
1.2043250006e+00
1.2043244812e+00
1.2043232726e+00
1.2043215502e+00
1.2043194560e+00
1.2043171057e+00
1.2043145905e+00
1.2043119838e+00
1.2043093418e+00
1.2043067091e+00
1.2043041188e+00
1.2043015966e+00
1.2042991604e+00
1.2042968240e+00
1.2042945959e+00
1.2042924820e+00
1.2042904849e+00
1.2042886058e+00
1.2042868436e+00
1.2042851966e+00
1.2042836615e+00
1.2042822348e+00
1.2042809121e+00
1.2042796889e+00
1.2042785602e+00
1.2042775212e+00
1.2042765665e+00
1.2042756912e+00
1.2042748903e+00
1.2042741588e+00
1.2042734918e+00
1.2042728848e+00
1.2042723333e+00
1.2042718331e+00
1.2042713800e+00
1.2042709704e+00
1.2042706008e+00
1.2042702678e+00
1.2042699685e+00
1.2042697002e+00
1.2042694605e+00
1.2042692470e+00
1.2042690579e+00
1.2042688912e+00
1.2042687454e+00
1.2042686184e+00
1.2042685082e+00
1.2042684124e+00
1.2042683277e+00
1.2042682497e+00
1.2042681727e+00
1.2042680889e+00
1.2042679884e+00
1.2042678584e+00
1.2042676844e+00
1.2042674497e+00
1.2042500350e+00
1.2001997217e+00
1.2002335320e+00
1.2002819119e+00
1.2003523661e+00
1.2004438214e+00
1.2005548907e+00
1.2006838923e+00
1.2008289097e+00
1.2009878199e+00
1.2011583641e+00
1.2013381794e+00
1.2015248728e+00
1.2017160498e+00
1.2019093851e+00
1.2021026436e+00
1.2022937424e+00
1.2024807606e+00
1.2026619889e+00
1.2028359282e+00
1.2030013237e+00
1.2031571529e+00
1.2033026445e+00
1.2034372563e+00
1.2035606814e+00
1.2036728177e+00
1.2037737636e+00
1.2038637825e+00
1.2039432904e+00
1.2040128200e+00
1.2040730036e+00
1.2041245387e+00
1.2041681711e+00
1.2042046650e+00
1.2042347887e+00
1.2042592910e+00
1.2042788920e+00
1.2042942662e+00
1.2043060397e+00
1.2043147790e+00
1.2043209939e+00
1.2043251320e+00
1.2043275851e+00
1.2043286876e+00
1.2043287250e+00
1.2043279349e+00
1.2043265157e+00
1.2043246287e+00
1.2043224059e+00
1.2043199522e+00
1.2043173523e+00
1.2043146719e+00
1.2043119636e+00
1.2043092667e+00
1.2043066128e+00
1.2043040245e+00
1.2043015195e+00
1.2042991100e+00
1.2042968051e+00
1.2042946100e+00
1.2042925286e+00
1.2042905618e+00
1.2042887099e+00
1.2042869712e+00
1.2042853438e+00
1.2042838245e+00
1.2042824099e+00
1.2042810958e+00
1.2042798782e+00
1.2042787524e+00
1.2042777139e+00
1.2042767578e+00
1.2042758795e+00
1.2042750743e+00
1.2042743375e+00
1.2042736646e+00
1.2042730513e+00
1.2042724932e+00
1.2042719863e+00
1.2042715266e+00
1.2042711105e+00
1.2042707346e+00
1.2042703954e+00
1.2042700901e+00
1.2042698158e+00
1.2042695697e+00
1.2042693495e+00
1.2042691527e+00
1.2042689769e+00
1.2042688196e+00
1.2042686781e+00
1.2042685493e+00
1.2042684293e+00
1.2042683136e+00
1.2042681962e+00
1.2042680701e+00
1.2042679264e+00
1.2042677551e+00
1.2042675446e+00
1.2042672834e+00
1.2042497894e+00
1.2004275421e+00
1.2004594417e+00
1.2005056179e+00
1.2005726935e+00
1.2006596598e+00
1.2007651977e+00
1.2008877259e+00
1.2010254227e+00
1.2011762899e+00
1.2013381794e+00
1.2015088646e+00
1.2016860668e+00
1.2018675266e+00
1.2020510254e+00
1.2022344507e+00
1.2024158098e+00
1.2025932841e+00
1.2027652330e+00
1.2029302347e+00
1.2030870797e+00
1.2032347975e+00
1.2033726397e+00
1.2035000935e+00
1.2036168559e+00
1.2037228355e+00
1.2038181204e+00
1.2039029703e+00
1.2039777817e+00
1.2040430739e+00
1.2040994536e+00
1.2041475990e+00
1.2041882273e+00
1.2042220800e+00
1.2042498955e+00
1.2042723984e+00
1.2042902792e+00
1.2043041881e+00
1.2043147222e+00
1.2043224252e+00
1.2043277798e+00
1.2043312126e+00
1.2043330911e+00
1.2043337314e+00
1.2043333983e+00
1.2043323142e+00
1.2043306608e+00
1.2043285876e+00
1.2043262136e+00
1.2043236355e+00
1.2043209285e+00
1.2043181532e+00
1.2043153555e+00
1.2043125723e+00
1.2043098309e+00
1.2043071532e+00
1.2043045545e+00
1.2043020473e+00
1.2042996396e+00
1.2042973378e+00
1.2042951453e+00
1.2042930645e+00
1.2042910956e+00
1.2042892386e+00
1.2042874917e+00
1.2042858531e+00
1.2042843197e+00
1.2042828886e+00
1.2042815560e+00
1.2042803182e+00
1.2042791710e+00
1.2042781101e+00
1.2042771312e+00
1.2042762301e+00
1.2042754021e+00
1.2042746430e+00
1.2042739484e+00
1.2042733141e+00
1.2042727360e+00
1.2042722101e+00
1.2042717324e+00
1.2042712994e+00
1.2042709074e+00
1.2042705531e+00
1.2042702332e+00
1.2042699446e+00
1.2042696844e+00
1.2042694496e+00
1.2042692372e+00
1.2042690441e+00
1.2042688672e+00
1.2042687027e+00
1.2042685465e+00
1.2042683937e+00
1.2042682388e+00
1.2042680751e+00
1.2042678951e+00
1.2042676903e+00
1.2042674520e+00
1.2042671713e+00
1.2042496221e+00
1.2006642770e+00
1.2006940762e+00
1.2007379519e+00
1.2008015112e+00
1.2008838006e+00
1.2009835879e+00
1.2010993785e+00
1.2012294694e+00
1.2013719710e+00
1.2015248728e+00
1.2016860668e+00
1.2018534171e+00
1.2020247805e+00
1.2021980739e+00
1.2023712885e+00
1.2025425493e+00
1.2027101213e+00
1.2028724576e+00
1.2030281958e+00
1.2031761935e+00
1.2033155153e+00
1.2034454543e+00
1.2035655109e+00
1.2036754016e+00
1.2037750306e+00
1.2038644882e+00
1.2039440173e+00
1.2040140041e+00
1.2040749430e+00
1.2041274227e+00
1.2041720919e+00
1.2042096452e+00
1.2042407928e+00
1.2042662483e+00
1.2042867047e+00
1.2043028271e+00
1.2043152352e+00
1.2043245015e+00
1.2043311408e+00
1.2043356129e+00
1.2043383183e+00
1.2043396040e+00
1.2043397633e+00
1.2043390438e+00
1.2043376487e+00
1.2043357460e+00
1.2043334699e+00
1.2043309295e+00
1.2043282099e+00
1.2043253797e+00
1.2043224912e+00
1.2043195865e+00
1.2043166972e+00
1.2043138487e+00
1.2043110597e+00
1.2043083456e+00
1.2043057170e+00
1.2043031829e+00
1.2043007489e+00
1.2042984198e+00
1.2042961979e+00
1.2042940852e+00
1.2042920818e+00
1.2042901876e+00
1.2042884011e+00
1.2042867208e+00
1.2042851441e+00
1.2042836685e+00
1.2042822906e+00
1.2042810072e+00
1.2042798146e+00
1.2042787089e+00