# vtk DataFile Version 2.0
Blank
ASCII
DATASET STRUCTURED_GRID
DIMENSIONS 101 101 2
POINTS 20402 float
0.0000000000e+00 0.0000000000e+00 0.0000000000e+00
1.0000000000e-02 0.0000000000e+00 0.0000000000e+00
2.0000000000e-02 0.0000000000e+00 0.0000000000e+00
3.0000000000e-02 0.0000000000e+00 0.0000000000e+00
4.0000000000e-02 0.0000000000e+00 0.0000000000e+00
5.0000000000e-02 0.0000000000e+00 0.0000000000e+00
6.0000000000e-02 0.0000000000e+00 0.0000000000e+00
7.0000000000e-02 0.0000000000e+00 0.0000000000e+00
8.0000000000e-02 0.0000000000e+00 0.0000000000e+00
9.0000000000e-02 0.0000000000e+00 0.0000000000e+00
1.0000000000e-01 0.0000000000e+00 0.0000000000e+00
1.1000000000e-01 0.0000000000e+00 0.0000000000e+00
1.2000000000e-01 0.0000000000e+00 0.0000000000e+00
1.3000000000e-01 0.0000000000e+00 0.0000000000e+00
1.4000000000e-01 0.0000000000e+00 0.0000000000e+00
1.5000000000e-01 0.0000000000e+00 0.0000000000e+00
1.6000000000e-01 0.0000000000e+00 0.0000000000e+00
1.7000000000e-01 0.0000000000e+00 0.0000000000e+00
1.8000000000e-01 0.0000000000e+00 0.0000000000e+00
1.9000000000e-01 0.0000000000e+00 0.0000000000e+00
2.0000000000e-01 0.0000000000e+00 0.0000000000e+00
2.1000000000e-01 0.0000000000e+00 0.0000000000e+00
2.2000000000e-01 0.0000000000e+00 0.0000000000e+00
2.3000000000e-01 0.0000000000e+00 0.0000000000e+00
2.4000000000e-01 0.0000000000e+00 0.0000000000e+00
2.5000000000e-01 0.0000000000e+00 0.0000000000e+00
2.6000000000e-01 0.0000000000e+00 0.0000000000e+00
2.7000000000e-01 0.0000000000e+00 0.0000000000e+00
2.8000000000e-01 0.0000000000e+00 0.0000000000e+00
2.9000000000e-01 0.0000000000e+00 0.0000000000e+00
3.0000000000e-01 0.0000000000e+00 0.0000000000e+00
3.1000000000e-01 0.0000000000e+00 0.0000000000e+00
3.2000000000e-01 0.0000000000e+00 0.0000000000e+00
3.3000000000e-01 0.0000000000e+00 0.0000000000e+00
3.4000000000e-01 0.0000000000e+00 0.0000000000e+00
3.5000000000e-01 0.0000000000e+00 0.0000000000e+00
3.6000000000e-01 0.0000000000e+00 0.0000000000e+00
3.7000000000e-01 0.0000000000e+00 0.0000000000e+00
3.8000000000e-01 0.0000000000e+00 0.0000000000e+00
3.9000000000e-01 0.0000000000e+00 0.0000000000e+00
4.0000000000e-01 0.0000000000e+00 0.0000000000e+00
4.1000000000e-01 0.0000000000e+00 0.0000000000e+00
4.2000000000e-01 0.0000000000e+00 0.0000000000e+00
4.3000000000e-01 0.0000000000e+00 0.0000000000e+00
4.4000000000e-01 0.0000000000e+00 0.0000000000e+00
4.5000000000e-01 0.0000000000e+00 0.0000000000e+00
4.6000000000e-01 0.0000000000e+00 0.0000000000e+00
4.7000000000e-01 0.0000000000e+00 0.0000000000e+00
4.8000000000e-01 0.0000000000e+00 0.0000000000e+00
4.9000000000e-01 0.0000000000e+00 0.0000000000e+00
5.0000000000e-01 0.0000000000e+00 0.0000000000e+00
5.1000000000e-01 0.0000000000e+00 0.0000000000e+00
5.2000000000e-01 0.0000000000e+00 0.0000000000e+00
5.3000000000e-01 0.0000000000e+00 0.0000000000e+00
5.4000000000e-01 0.0000000000e+00 0.0000000000e+00
5.5000000000e-01 0.0000000000e+00 0.0000000000e+00
5.6000000000e-01 0.0000000000e+00 0.0000000000e+00
5.7000000000e-01 0.0000000000e+00 0.0000000000e+00
5.8000000000e-01 0.0000000000e+00 0.0000000000e+00
5.9000000000e-01 0.0000000000e+00 0.0000000000e+00
6.0000000000e-01 0.0000000000e+00 0.0000000000e+00
6.1000000000e-01 0.0000000000e+00 0.0000000000e+00
6.2000000000e-01 0.0000000000e+00 0.0000000000e+00
6.3000000000e-01 0.0000000000e+00 0.0000000000e+00
6.4000000000e-01 0.0000000000e+00 0.0000000000e+00
6.5000000000e-01 0.0000000000e+00 0.0000000000e+00
6.6000000000e-01 0.0000000000e+00 0.0000000000e+00
6.7000000000e-01 0.0000000000e+00 0.0000000000e+00
6.8000000000e-01 0.0000000000e+00 0.0000000000e+00
6.9000000000e-01 0.0000000000e+00 0.0000000000e+00
7.0000000000e-01 0.0000000000e+00 0.0000000000e+00
7.1000000000e-01 0.0000000000e+00 0.0000000000e+00
7.2000000000e-01 0.0000000000e+00 0.0000000000e+00
7.3000000000e-01 0.0000000000e+00 0.0000000000e+00
7.4000000000e-01 0.0000000000e+00 0.0000000000e+00
7.5000000000e-01 0.0000000000e+00 0.0000000000e+00
7.6000000000e-01 0.0000000000e+00 0.0000000000e+00
7.7000000000e-01 0.0000000000e+00 0.0000000000e+00
7.8000000000e-01 0.0000000000e+00 0.0000000000e+00
7.9000000000e-01 0.0000000000e+00 0.0000000000e+00
8.0000000000e-01 0.0000000000e+00 0.0000000000e+00
8.1000000000e-01 0.0000000000e+00 0.0000000000e+00
8.2000000000e-01 0.0000000000e+00 0.0000000000e+00
8.3000000000e-01 0.0000000000e+00 0.0000000000e+00
8.4000000000e-01 0.0000000000e+00 0.0000000000e+00
8.5000000000e-01 0.0000000000e+00 0.0000000000e+00
8.6000000000e-01 0.0000000000e+00 0.0000000000e+00
8.7000000000e-01 0.0000000000e+00 0.0000000000e+00
8.8000000000e-01 0.0000000000e+00 0.0000000000e+00
8.9000000000e-01 0.0000000000e+00 0.0000000000e+00
9.0000000000e-01 0.0000000000e+00 0.0000000000e+00
9.1000000000e-01 0.0000000000e+00 0.0000000000e+00
9.2000000000e-01 0.0000000000e+00 0.0000000000e+00
9.3000000000e-01 0.0000000000e+00 0.0000000000e+00
9.4000000000e-01 0.0000000000e+00 0.0000000000e+00
9.5000000000e-01 0.0000000000e+00 0.0000000000e+00
9.6000000000e-01 0.0000000000e+00 0.0000000000e+00
9.7000000000e-01 0.0000000000e+00 0.0000000000e+00
9.8000000000e-01 0.0000000000e+00 0.0000000000e+00
9.9000000000e-01 0.0000000000e+00 0.0000000000e+00
1.0000000000e+00 0.0000000000e+00 0.0000000000e+00
0.0000000000e+00 1.0000000000e-02 0.0000000000e+00
1.0000000000e-02 1.0000000000e-02 0.0000000000e+00
2.0000000000e-02 1.0000000000e-02 0.0000000000e+00
3.0000000000e-02 1.0000000000e-02 0.0000000000e+00
4.0000000000e-02 1.0000000000e-02 0.0000000000e+00
5.0000000000e-02 1.0000000000e-02 0.0000000000e+00
6.0000000000e-02 1.0000000000e-02 0.0000000000e+00
7.0000000000e-02 1.0000000000e-02 0.0000000000e+00
8.0000000000e-02 1.0000000000e-02 0.0000000000e+00
9.0000000000e-02 1.0000000000e-02 0.0000000000e+00
1.0000000000e-01 1.0000000000e-02 0.0000000000e+00
1.1000000000e-01 1.0000000000e-02 0.0000000000e+00
1.2000000000e-01 1.0000000000e-02 0.0000000000e+00
1.3000000000e-01 1.0000000000e-02 0.0000000000e+00
1.4000000000e-01 1.0000000000e-02 0.0000000000e+00
1.5000000000e-01 1.0000000000e-02 0.0000000000e+00
1.6000000000e-01 1.0000000000e-02 0.0000000000e+00
1.7000000000e-01 1.0000000000e-02 0.0000000000e+00
1.8000000000e-01 1.0000000000e-02 0.0000000000e+00
1.9000000000e-01 1.0000000000e-02 0.0000000000e+00
2.0000000000e-01 1.0000000000e-02 0.0000000000e+00
2.1000000000e-01 1.0000000000e-02 0.0000000000e+00
2.2000000000e-01 1.0000000000e-02 0.0000000000e+00
2.3000000000e-01 1.0000000000e-02 0.0000000000e+00
2.4000000000e-01 1.0000000000e-02 0.0000000000e+00
2.5000000000e-01 1.0000000000e-02 0.0000000000e+00
2.6000000000e-01 1.0000000000e-02 0.0000000000e+00
2.7000000000e-01 1.0000000000e-02 0.0000000000e+00
2.8000000000e-01 1.0000000000e-02 0.0000000000e+00
2.9000000000e-01 1.0000000000e-02 0.0000000000e+00
3.0000000000e-01 1.0000000000e-02 0.0000000000e+00
3.1000000000e-01 1.0000000000e-02 0.0000000000e+00
3.2000000000e-01 1.0000000000e-02 0.0000000000e+00
3.3000000000e-01 1.0000000000e-02 0.0000000000e+00
3.4000000000e-01 1.0000000000e-02 0.0000000000e+00
3.5000000000e-01 1.0000000000e-02 0.0000000000e+00
3.6000000000e-01 1.0000000000e-02 0.0000000000e+00
3.7000000000e-01 1.0000000000e-02 0.0000000000e+00
3.8000000000e-01 1.0000000000e-02 0.0000000000e+00
3.9000000000e-01 1.0000000000e-02 0.0000000000e+00
4.0000000000e-01 1.0000000000e-02 0.0000000000e+00
4.1000000000e-01 1.0000000000e-02 0.0000000000e+00
4.2000000000e-01 1.0000000000e-02 0.0000000000e+00
4.3000000000e-01 1.0000000000e-02 0.0000000000e+00
4.4000000000e-01 1.0000000000e-02 0.0000000000e+00
4.5000000000e-01 1.0000000000e-02 0.0000000000e+00
4.6000000000e-01 1.0000000000e-02 0.0000000000e+00
4.7000000000e-01 1.0000000000e-02 0.0000000000e+00
4.8000000000e-01 1.0000000000e-02 0.0000000000e+00
4.9000000000e-01 1.0000000000e-02 0.0000000000e+00
5.0000000000e-01 1.0000000000e-02 0.0000000000e+00
5.1000000000e-01 1.0000000000e-02 0.0000000000e+00
5.2000000000e-01 1.0000000000e-02 0.0000000000e+00
5.3000000000e-01 1.0000000000e-02 0.0000000000e+00
5.4000000000e-01 1.0000000000e-02 0.0000000000e+00
5.5000000000e-01 1.0000000000e-02 0.0000000000e+00
5.6000000000e-01 1.0000000000e-02 0.0000000000e+00
5.7000000000e-01 1.0000000000e-02 0.0000000000e+00
5.8000000000e-01 1.0000000000e-02 0.0000000000e+00
5.9000000000e-01 1.0000000000e-02 0.0000000000e+00
6.0000000000e-01 1.0000000000e-02 0.0000000000e+00
6.1000000000e-01 1.0000000000e-02 0.0000000000e+00
6.2000000000e-01 1.0000000000e-02 0.0000000000e+00
6.3000000000e-01 1.0000000000e-02 0.0000000000e+00
6.4000000000e-01 1.0000000000e-02 0.0000000000e+00
6.5000000000e-01 1.0000000000e-02 0.0000000000e+00
6.6000000000e-01 1.0000000000e-02 0.0000000000e+00
6.7000000000e-01 1.0000000000e-02 0.0000000000e+00
6.8000000000e-01 1.0000000000e-02 0.0000000000e+00
6.9000000000e-01 1.0000000000e-02 0.0000000000e+00
7.0000000000e-01 1.0000000000e-02 0.0000000000e+00
7.1000000000e-01 1.0000000000e-02 0.0000000000e+00
7.2000000000e-01 1.0000000000e-02 0.0000000000e+00
7.3000000000e-01 1.0000000000e-02 0.0000000000e+00
7.4000000000e-01 1.0000000000e-02 0.0000000000e+00
7.5000000000e-01 1.0000000000e-02 0.0000000000e+00
7.6000000000e-01 1.0000000000e-02 0.0000000000e+00
7.7000000000e-01 1.0000000000e-02 0.0000000000e+00
7.8000000000e-01 1.0000000000e-02 0.0000000000e+00
7.9000000000e-01 1.0000000000e-02 0.0000000000e+00
8.0000000000e-01 1.0000000000e-02 0.0000000000e+00
8.1000000000e-01 1.0000000000e-02 0.0000000000e+00
8.2000000000e-01 1.0000000000e-02 0.0000000000e+00
8.3000000000e-01 1.0000000000e-02 0.0000000000e+00
8.4000000000e-01 1.0000000000e-02 0.0000000000e+00
8.5000000000e-01 1.0000000000e-02 0.0000000000e+00
8.6000000000e-01 1.0000000000e-02 0.0000000000e+00
8.7000000000e-01 1.0000000000e-02 0.0000000000e+00
8.8000000000e-01 1.0000000000e-02 0.0000000000e+00
8.9000000000e-01 1.0000000000e-02 0.0000000000e+00
9.0000000000e-01 1.0000000000e-02 0.0000000000e+00
9.1000000000e-01 1.0000000000e-02 0.0000000000e+00
9.2000000000e-01 1.0000000000e-02 0.0000000000e+00
[...]
CELL_DATA 10000

SCALARS massDensity float
LOOKUP_TABLE default
1.2004198281e+00
1.2004329650e+00
1.2004644271e+00
1.2005115186e+00
1.2005737145e+00
1.2006502913e+00
1.2007403473e+00
1.2008428247e+00
1.2009565349e+00
1.2010801838e+00
1.2012123989e+00
1.2013517545e+00
1.2014967980e+00
1.2016460740e+00
1.2017981482e+00
1.2019516282e+00
1.2021051843e+00
1.2022575654e+00
1.2024076149e+00
1.2025542816e+00
1.2026966299e+00
1.2028338449e+00
1.2029652369e+00
1.2030902413e+00
1.2032084179e+00
1.2033194459e+00
1.2034231192e+00
1.2035193383e+00
1.2036081019e+00
1.2036894967e+00
1.2037636878e+00
1.2038309074e+00
1.2038914442e+00
1.2039456324e+00
1.2039938416e+00
1.2040364670e+00
1.2040739200e+00
1.2041066200e+00
1.2041349868e+00
1.2041594340e+00
1.2041803634e+00
1.2041981605e+00
1.2042131903e+00
1.2042257947e+00
1.2042362904e+00
1.2042449678e+00
1.2042520902e+00
1.2042578941e+00
1.2042625894e+00
1.2042663608e+00
1.2042693691e+00
1.2042717527e+00
1.2042736294e+00
1.2042750987e+00
1.2042762433e+00
1.2042771314e+00
1.2042778184e+00
1.2042783490e+00
1.2042787583e+00
1.2042790742e+00
1.2042793179e+00
1.2042795059e+00
1.2042796500e+00
1.2042797596e+00
1.2042798411e+00
1.2042798996e+00
1.2042799386e+00
1.2042799611e+00
1.2042799694e+00
1.2042799660e+00
1.2042799534e+00
1.2042799346e+00
1.2042799133e+00
1.2042798940e+00
1.2042798823e+00
1.2042798852e+00
1.2042799112e+00
1.2042799703e+00
1.2042800742e+00
1.2042802367e+00
1.2042804732e+00
1.2042808008e+00
1.2042812383e+00
1.2042818056e+00
1.2042825236e+00
1.2042834138e+00
1.2042844974e+00
1.2042857953e+00
1.2042873276e+00
1.2042891131e+00
1.2042911693e+00
1.2042935118e+00
1.2042961535e+00
1.2042991020e+00
1.2043023548e+00
1.2043058899e+00
1.2043096514e+00
1.2043135288e+00
1.2043173335e+00
1.2043239087e+00
1.2004329650e+00
1.2004460326e+00
1.2004774193e+00
1.2005244594e+00
1.2005865724e+00
1.2006630049e+00
1.2007528395e+00
1.2008550140e+00
1.2009683399e+00
1.2010915289e+00
1.2012232145e+00
1.2013619802e+00
1.2015063818e+00
1.2016549746e+00
1.2018063336e+00
1.2019590783e+00
1.2021118890e+00
1.2022635271e+00
1.2024128466e+00
1.2025588087e+00
1.2027004881e+00
1.2028370814e+00
1.2029679084e+00
1.2030924142e+00
1.2032101658e+00
1.2033208496e+00
1.2034242642e+00
1.2035203136e+00
1.2036089979e+00
1.2036904041e+00
1.2037646950e+00
1.2038320994e+00
1.2038929006e+00
1.2039474262e+00
1.2039960379e+00
1.2040391220e+00
1.2040770803e+00
1.2041103220e+00
1.2041392567e+00
1.2041642879e+00
1.2041858076e+00
1.2042041920e+00
1.2042197978e+00
1.2042329594e+00
1.2042439873e+00
1.2042531665e+00
1.2042607565e+00
1.2042669906e+00
1.2042720772e+00
1.2042762000e+00
1.2042795201e+00
1.2042821765e+00
1.2042842890e+00
1.2042859586e+00
1.2042872708e+00
1.2042882960e+00
1.2042890925e+00
1.2042897074e+00
1.2042901787e+00
1.2042905362e+00
1.2042908037e+00
1.2042909991e+00
1.2042911363e+00
1.2042912255e+00
1.2042912743e+00
1.2042912884e+00
1.2042912719e+00
1.2042912277e+00
1.2042911584e+00
1.2042910659e+00
1.2042909525e+00
1.2042908204e+00
1.2042906724e+00
1.2042905121e+00
1.2042903438e+00
1.2042901730e+00
1.2042900062e+00
1.2042898516e+00
1.2042897184e+00
1.2042896176e+00
1.2042895615e+00
1.2042895637e+00
1.2042896392e+00
1.2042898040e+00
1.2042900748e+00
1.2042904689e+00
1.2042910038e+00
1.2042916966e+00
1.2042925642e+00
1.2042936227e+00
1.2042948871e+00
1.2042963710e+00
1.2042980862e+00
1.2043000407e+00
1.2043022373e+00
1.2043046694e+00
1.2043073181e+00
1.2043101483e+00
1.2043131134e+00
1.2043190314e+00
1.2004644271e+00
1.2004774193e+00
1.2005084748e+00
1.2005550883e+00
1.2006166710e+00
1.2006924650e+00
1.2007815557e+00
1.2008828848e+00
1.2009952740e+00
1.2011174436e+00
1.2012480403e+00
1.2013856584e+00
1.2015288680e+00
1.2016762354e+00
1.2018263502e+00
1.2019778424e+00
1.2021294060e+00
1.2022798120e+00
1.2024279264e+00
1.2025727186e+00
1.2027132732e+00
1.2028487930e+00
1.2029786050e+00
1.2031021582e+00
1.2032190242e+00
1.2033288908e+00
1.2034315584e+00
1.2035269302e+00
1.2036150055e+00
1.2036958687e+00
1.2037696797e+00
1.2038366632e+00
1.2038970982e+00
1.2039513074e+00
1.2039996475e+00
1.2040424994e+00
1.2040802598e+00
1.2041133330e+00
1.2041421238e+00
1.2041670316e+00
1.2041884444e+00
1.2042067350e+00
1.2042222573e+00
1.2042353436e+00
1.2042463021e+00
1.2042554169e+00
1.2042629460e+00
1.2042691224e+00
1.2042741538e+00
1.2042782242e+00
1.2042814942e+00
1.2042841034e+00
1.2042861712e+00
1.2042877991e+00
1.2042890724e+00
1.2042900618e+00
1.2042908253e+00
1.2042914102e+00
1.2042918539e+00
1.2042921863e+00
1.2042924304e+00
1.2042926040e+00
1.2042927203e+00
1.2042927890e+00
1.2042928172e+00
1.2042928099e+00
1.2042927706e+00
1.2042927018e+00
1.2042926053e+00
1.2042924827e+00
1.2042923357e+00
1.2042921662e+00
1.2042919765e+00
1.2042917699e+00
1.2042915505e+00
1.2042913236e+00
1.2042910957e+00
1.2042908746e+00
1.2042906697e+00
1.2042904919e+00
1.2042903535e+00
1.2042902680e+00
1.2042902506e+00
1.2042903172e+00
1.2042904846e+00
1.2042907703e+00
1.2042911918e+00
1.2042917665e+00
1.2042925115e+00
1.2042934431e+00
1.2042945766e+00
1.2042959255e+00
1.2042975016e+00
1.2042993135e+00
1.2043013654e+00
1.2043036564e+00
1.2043061789e+00
1.2043089209e+00
1.2043118723e+00
1.2043175917e+00
1.2005115186e+00
1.2005244594e+00
1.2005550883e+00
1.2006010968e+00
1.2006618995e+00
1.2007367450e+00
1.2008247256e+00
1.2009247957e+00
1.2010357887e+00
1.2011564425e+00
1.2012854188e+00
1.2014213316e+00
1.2015627676e+00
1.2017083135e+00
1.2018565753e+00
1.2020062029e+00
1.2021559056e+00
1.2023044724e+00
1.2024507826e+00
1.2025938210e+00
1.2027326826e+00
1.2028665825e+00
1.2029948549e+00
1.2031169571e+00
1.2032324648e+00
1.2033410705e+00
1.2034425750e+00
1.2035368829e+00
1.2036239913e+00
1.2037039825e+00
1.2037770122e+00
1.2038433005e+00
1.2039031207e+00
1.2039567896e+00
1.2040046571e+00
1.2040470976e+00
1.2040845011e+00
1.2041172655e+00
1.2041457892e+00
1.2041704657e+00
1.2041916779e+00
1.2042097938e+00
1.2042251631e+00
1.2042381142e+00
1.2042489528e+00
1.2042579600e+00
1.2042653923e+00
1.2042714808e+00
1.2042764324e+00
1.2042804297e+00
1.2042836331e+00
1.2042861815e+00
1.2042881941e+00
1.2042897720e+00
1.2042910003e+00
1.2042919495e+00
1.2042926775e+00
1.2042932309e+00
1.2042936472e+00
1.2042939555e+00
1.2042941786e+00
1.2042943337e+00
1.2042944336e+00
1.2042944873e+00
1.2042945015e+00
1.2042944806e+00
1.2042944274e+00
1.2042943440e+00
1.2042942317e+00
1.2042940916e+00
1.2042939248e+00
1.2042937328e+00
1.2042935176e+00
1.2042932822e+00
1.2042930304e+00
1.2042927671e+00
1.2042924987e+00
1.2042922328e+00
1.2042919786e+00
1.2042917467e+00
1.2042915493e+00
1.2042914000e+00
1.2042913134e+00
1.2042913055e+00
1.2042913929e+00
1.2042915927e+00
1.2042919225e+00
1.2042923995e+00
1.2042930408e+00
1.2042938624e+00
1.2042948796e+00
1.2042961060e+00
1.2042975533e+00
1.2042992308e+00
1.2043011450e+00
1.2043032993e+00
1.2043056946e+00
1.2043083319e+00
1.2043112193e+00
1.2043166788e+00
1.2005737145e+00
1.2005865724e+00
1.2006166710e+00
1.2006618995e+00
1.2007216840e+00
1.2007952832e+00
1.2008818045e+00
1.2009802169e+00
1.2010893744e+00
1.2012080334e+00
1.2013348800e+00
1.2014685495e+00
1.2016076544e+00
1.2017508037e+00
1.2018966292e+00
1.2020438018e+00
1.2021910553e+00
1.2023371975e+00
1.2024811292e+00
1.2026218507e+00
1.2027584747e+00
1.2028902279e+00
1.2030164576e+00
1.2031366286e+00
1.2032503247e+00
1.2033572417e+00
1.2034571843e+00
1.2035500562e+00
1.2036358541e+00
1.2037146564e+00
1.2037866152e+00
1.2038519443e+00
1.2039109108e+00
1.2039638236e+00
1.2040110254e+00
1.2040528821e+00
1.2040897756e+00
1.2041220958e+00
1.2041502335e+00
1.2041745748e+00
1.2041954959e+00
1.2042133588e+00
1.2042285075e+00
1.2042412659e+00
1.2042519352e+00
1.2042607934e+00
1.2042680937e+00
1.2042740651e+00
1.2042789122e+00
1.2042828165e+00
1.2042859368e+00
1.2042884112e+00
1.2042903579e+00
1.2042918777e+00
1.2042930549e+00
1.2042939595e+00
1.2042946489e+00
1.2042951693e+00
1.2042955577e+00
1.2042958428e+00
1.2042960467e+00
1.2042961863e+00
1.2042962736e+00
1.2042963173e+00
1.2042963235e+00
1.2042962959e+00
1.2042962371e+00
1.2042961483e+00
1.2042960306e+00
1.2042958844e+00
1.2042957105e+00
1.2042955099e+00
1.2042952843e+00
1.2042950363e+00
1.2042947692e+00
1.2042944878e+00
1.2042941980e+00
1.2042939073e+00
1.2042936244e+00
1.2042933597e+00
1.2042931250e+00
1.2042929335e+00
1.2042927996e+00
1.2042927388e+00
1.2042927672e+00
1.2042929018e+00
1.2042931595e+00
1.2042935572e+00
1.2042941116e+00
1.2042948384e+00
1.2042957525e+00
1.2042968672e+00
1.2042981945e+00
1.2042997443e+00
1.2043015248e+00
1.2043035424e+00
1.2043058033e+00
1.2043083161e+00
1.2043110966e+00
1.2043162953e+00
1.2006502913e+00
1.2006630049e+00
1.2006924650e+00
1.2007367450e+00
1.2007952832e+00
1.2008673553e+00
1.2009520848e+00
1.2010484636e+00
1.2011553669e+00
1.2012715791e+00
1.2013958110e+00
1.2015267290e+00
1.2016629723e+00
1.2018031817e+00
1.2019460156e+00
1.2020901757e+00
1.2022344202e+00
1.2023775848e+00
1.2025185915e+00
1.2026564642e+00
1.2027903325e+00
1.2029194414e+00
1.2030431500e+00
1.2031609358e+00
1.2032723895e+00
1.2033772137e+00
1.2034752150e+00
1.2035662990e+00
1.2036504600e+00
1.2037277739e+00
1.2037983868e+00
1.2038625067e+00
1.2039203925e+00
1.2039723451e+00
1.2040186976e+00
1.2040598068e+00
1.2040960449e+00
1.2041277924e+00
1.2041554311e+00
1.2041793384e+00
1.2041998824e+00
1.2042174176e+00
1.2042322816e+00
1.2042447920e+00
1.2042552453e+00
1.2042639145e+00
1.2042710493e+00
1.2042768753e+00
1.2042815948e+00
1.2042853866e+00
1.2042884080e+00
1.2042907955e+00
1.2042926663e+00
1.2042941199e+00
1.2042952399e+00
1.2042960955e+00
1.2042967433e+00
1.2042972291e+00
1.2042975890e+00
1.2042978514e+00
1.2042980378e+00
1.2042981644e+00
1.2042982427e+00
1.2042982809e+00
1.2042982844e+00
1.2042982567e+00
1.2042981995e+00
1.2042981138e+00
1.2042980000e+00
1.2042978583e+00
1.2042976889e+00
1.2042974924e+00
1.2042972700e+00
1.2042970240e+00
1.2042967573e+00
1.2042964743e+00
1.2042961804e+00
1.2042958827e+00
1.2042955896e+00
1.2042953111e+00
1.2042950583e+00
1.2042948440e+00
1.2042946820e+00
1.2042945872e+00
1.2042945753e+00
1.2042946624e+00
1.2042948649e+00
1.2042951991e+00
1.2042956809e+00
1.2042963256e+00
1.2042971475e+00
1.2042981595e+00
1.2042993736e+00
1.2043008000e+00
1.2043024478e+00
1.2043043257e+00
1.2043064427e+00
1.2043088106e+00
1.2043114481e+00
1.2043164110e+00
1.2007403473e+00
1.2007528395e+00
1.2007815557e+00
1.2008247256e+00
1.2008818045e+00
1.2009520848e+00
1.2010347137e+00
1.2011287056e+00
1.2012329659e+00
1.2013463064e+00
1.2014674729e+00
1.2015951622e+00
1.2017280507e+00
1.2018648103e+00
1.2020041364e+00
1.2021447607e+00
1.2022854757e+00
1.2024251441e+00
1.2025627177e+00
1.2026972430e+00
1.2028278738e+00
1.2029538719e+00
1.2030746145e+00
1.2031895900e+00
1.2032984003e+00
1.2034007533e+00
1.2034964604e+00
1.2035854272e+00
1.2036676474e+00
1.2037431923e+00
1.2038122032e+00
1.2038748800e+00
1.2039314736e+00
1.2039822748e+00
1.2040276068e+00
1.2040678154e+00
1.2041032623e+00
1.2041343169e+00
1.2041613507e+00
1.2041847314e+00
1.2042048176e+00
1.2042219553e+00
1.2042364741e+00
1.2042486850e+00
1.2042588779e+00
1.2042673208e+00
1.2042742585e+00
1.2042799128e+00
1.2042844824e+00
1.2042881436e+00
1.2042910512e+00
1.2042933399e+00
1.2042951250e+00
1.2042965049e+00
1.2042975619e+00
1.2042983643e+00
1.2042989678e+00
1.2042994173e+00
1.2042997484e+00
1.2042999886e+00
1.2043001589e+00
1.2043002747e+00
1.2043003472e+00
1.2043003839e+00
1.2043003898e+00
1.2043003676e+00
1.2043003189e+00
1.2043002438e+00
1.2043001426e+00
1.2043000147e+00
1.2042998601e+00
1.2042996788e+00
1.2042994719e+00
1.2042992407e+00
1.2042989882e+00
1.2042987179e+00
1.2042984351e+00
1.2042981461e+00
1.2042978589e+00
1.2042975826e+00
1.2042973282e+00
1.2042971075e+00
1.2042969337e+00
1.2042968208e+00
1.2042967838e+00
1.2042968380e+00
1.2042969990e+00
1.2042972822e+00
1.2042977028e+00
1.2042982751e+00
1.2042990129e+00
1.2042999286e+00
1.2043010336e+00
1.2043023384e+00
1.2043038525e+00
1.2043055854e+00
1.2043075472e+00
1.2043097511e+00
1.2043122150e+00
1.2043169767e+00
1.2008428247e+00
1.2008550140e+00
1.2008828848e+00
1.2009247957e+00
1.2009802169e+00
1.2010484636e+00
1.2011287056e+00
1.2012199882e+00
1.2013212455e+00
1.2014313266e+00
1.2015490107e+00
1.2016730356e+00
1.2018021131e+00
1.2019349573e+00
1.2020702986e+00
1.2022069092e+00
1.2023436141e+00
1.2024793124e+00
1.2026129841e+00
1.2027437064e+00
1.2028706552e+00
1.2029931164e+00
1.2031104828e+00
1.2032222593e+00
1.2033280568e+00
1.2034275924e+00
1.2035206803e+00
1.2036072286e+00
1.2036872283e+00
1.2037607475e+00
1.2038279205e+00
1.2038889400e+00
1.2039440467e+00
1.2039935213e+00
1.2040376752e+00
1.2040768426e+00
1.2041113730e+00
1.2041416242e+00
1.2041679559e+00
1.2041907245e+00
1.2042102785e+00
1.2042269541e+00
1.2042410723e+00
1.2042529358e+00
1.2042628277e+00
1.2042710095e+00
1.2042777210e+00
1.2042831790e+00
1.2042875784e+00
1.2042910921e+00
1.2042938723e+00
1.2042960509e+00
1.2042977416e+00
1.2042990408e+00
1.2043000296e+00
1.2043007750e+00
1.2043013317e+00
1.2043017435e+00
1.2043020453e+00
1.2043022638e+00
1.2043024193e+00
1.2043025266e+00
1.2043025962e+00
1.2043026352e+00
1.2043026478e+00
1.2043026364e+00
1.2043026019e+00
1.2043025443e+00
1.2043024629e+00
1.2043023572e+00
1.2043022262e+00
1.2043020701e+00
1.2043018887e+00
1.2043016837e+00
1.2043014568e+00
1.2043012115e+00
1.2043009522e+00
1.2043006850e+00
1.2043004167e+00
1.2043001563e+00
1.2042999134e+00
1.2042996994e+00
1.2042995265e+00
1.2042994080e+00
1.2042993577e+00
1.2042993900e+00
1.2042995196e+00
1.2042997608e+00
1.2043001279e+00
1.2043006344e+00
1.2043012931e+00
1.2043021157e+00
1.2043031132e+00
1.2043042957e+00
1.2043056726e+00
1.2043072533e+00
1.2043090484e+00
1.2043110701e+00
1.2043133347e+00
1.2043179306e+00
1.2009565349e+00
1.2009683399e+00
1.2009952740e+00
1.2010357887e+00
1.2010893744e+00
1.2011553669e+00
1.2012329659e+00
1.2013212455e+00
1.2014191779e+00
1.2015256469e+00
1.2016394755e+00
1.2017594400e+00
1.2018842983e+00
1.2020128043e+00
1.2021437339e+00
1.2022758971e+00
1.2024081616e+00
1.2025394602e+00
1.2026688101e+00
1.2027953164e+00
1.2029181853e+00
1.2030367236e+00
1.2031503463e+00
1.2032585720e+00
1.2033610258e+00
1.2034574310e+00
1.2035476084e+00
1.2036314658e+00
1.2037089939e+00
1.2037802555e+00
1.2038453790e+00
1.2039045475e+00
1.2039579922e+00
1.2040059819e+00
1.2040488157e+00
1.2040868150e+00
1.2041203161e+00
1.2041496638e+00
1.2041752052e+00
1.2041972848e+00
1.2042162392e+00
1.2042323944e+00
1.2042460613e+00
1.2042575342e+00
1.2042670880e+00
1.2042749775e+00
1.2042814360e+00
1.2042866756e+00
1.2042908863e+00
1.2042942374e+00
1.2042968775e+00
1.2042989360e+00
1.2043005243e+00
1.2043017367e+00
1.2043026527e+00
1.2043033377e+00
1.2043038453e+00
1.2043042183e+00
1.2043044906e+00
1.2043046879e+00
1.2043048299e+00
1.2043049306e+00
1.2043050000e+00
1.2043050444e+00
1.2043050677e+00
1.2043050715e+00
1.2043050565e+00
1.2043050219e+00
1.2043049668e+00
1.2043048900e+00
1.2043047903e+00
1.2043046670e+00
1.2043045200e+00
1.2043043497e+00
1.2043041580e+00
1.2043039472e+00
1.2043037216e+00
1.2043034859e+00
1.2043032468e+00
1.2043030121e+00
1.2043027908e+00
1.2043025930e+00
1.2043024303e+00
1.2043023147e+00
1.2043022591e+00
1.2043022767e+00
1.2043023812e+00
1.2043025858e+00
1.2043029037e+00
1.2043033473e+00
1.2043039285e+00
1.2043046582e+00
1.2043055468e+00
1.2043066035e+00
1.2043078375e+00
1.2043092577e+00
1.2043108738e+00
1.2043126969e+00
1.2043147405e+00
1.2043192014e+00
1.2010801838e+00
1.2010915289e+00
1.2011174436e+00
1.2011564425e+00
1.2012080334e+00
1.2012715791e+00
1.2013463064e+00
1.2014313266e+00
1.2015256469e+00
1.2016281958e+00
1.2017378366e+00
1.2018533946e+00
1.2019736708e+00
1.2020974688e+00
1.2022236071e+00
1.2023509439e+00
1.2024783857e+00
1.2026049090e+00
1.2027295645e+00
1.2028514937e+00
1.2029699297e+00
1.2030842075e+00
1.2031937609e+00
1.2032981281e+00
1.2033969450e+00
1.2034899458e+00
1.2035769547e+00
1.2036578826e+00
1.2037327172e+00
1.2038015177e+00
1.2038644043e+00
1.2039215520e+00
1.2039731800e+00
1.2040195453e+00
1.2040609336e+00
1.2040976526e+00
1.2041300246e+00
1.2041583805e+00
1.2041830537e+00
1.2042043757e+00
1.2042226710e+00
1.2042382538e+00
1.2042514247e+00
1.2042624683e+00
1.2042716511e+00
1.2042792202e+00
1.2042854024e+00
1.2042904036e+00
1.2042944093e+00
1.2042975841e+00
1.2043000731e+00
1.2043020027e+00
1.2043034815e+00
1.2043046017e+00
1.2043054407e+00
1.2043060626e+00
1.2043065193e+00
1.2043068526e+00
1.2043070950e+00
1.2043072717e+00
1.2043074013e+00
1.2043074972e+00
1.2043075685e+00
1.2043076212e+00
1.2043076583e+00
1.2043076812e+00
1.2043076896e+00
1.2043076827e+00
1.2043076588e+00
1.2043076164e+00
1.2043075536e+00
1.2043074694e+00
1.2043073628e+00
1.2043072342e+00
1.2043070842e+00
1.2043069152e+00
1.2043067299e+00
1.2043065329e+00
1.2043063298e+00
1.2043061274e+00
1.2043059339e+00
1.2043057584e+00
1.2043056112e+00
1.2043055033e+00
1.2043054465e+00
1.2043054528e+00
1.2043055346e+00
1.2043057041e+00
1.2043059731e+00
1.2043063533e+00
1.2043068554e+00
1.2043074894e+00
1.2043082647e+00
1.2043091900e+00
1.2043102735e+00
1.2043115235e+00
1.2043129484e+00
1.2043145576e+00
1.2043163621e+00
1.2043207099e+00
1.2012123989e+00
1.2012232145e+00
1.2012480403e+00
1.2012854188e+00
1.2013348800e+00
1.2013958110e+00
1.2014674729e+00
1.2015490107e+00
1.2016394755e+00
1.2017378366e+00
1.2018430076e+00
1.2019538588e+00
1.2020692444e+00
1.2021880140e+00
1.2023090388e+00
1.2024312207e+00
1.2025535154e+00
1.2026749383e+00
1.2027945828e+00
1.2029116229e+00
1.2030253262e+00
1.2031350518e+00
1.2032402593e+00
1.2033405024e+00
1.2034354330e+00
1.2035247932e+00
1.2036084142e+00
1.2036862069e+00
1.2037581588e+00
1.2038243229e+00
1.2038848130e+00
1.2039397932e+00
1.2039894721e+00
1.2040340930e+00
1.2040739282e+00
1.2041092704e+00
1.2041404273e+00
1.2041677150e+00
1.2041914528e+00
1.2042119581e+00
1.2042295424e+00
1.2042445079e+00
1.2042571439e+00
1.2042677248e+00
1.2042765079e+00
1.2042837323e+00
1.2042896174e+00
1.2042943632e+00
1.2042981494e+00
1.2043011361e+00
1.2043034645e+00
1.2043052575e+00
1.2043066207e+00
1.2043076439e+00
1.2043084026e+00
1.2043089587e+00
1.2043093630e+00
1.2043096556e+00
1.2043098682e+00
1.2043100246e+00
1.2043101428e+00
1.2043102351e+00
1.2043103103e+00
1.2043103731e+00
1.2043104266e+00
1.2043104710e+00
1.2043105061e+00
1.2043105301e+00
1.2043105410e+00
1.2043105365e+00
1.2043105146e+00
1.2043104733e+00
1.2043104115e+00
1.2043103284e+00
1.2043102246e+00
1.2043101010e+00
1.2043099603e+00
1.2043098056e+00
1.2043096420e+00
1.2043094750e+00
1.2043093120e+00
1.2043091609e+00
1.2043090308e+00
1.2043089316e+00
1.2043088738e+00
1.2043088683e+00
1.2043089261e+00
1.2043090583e+00
1.2043092757e+00
1.2043095885e+00
1.2043100066e+00
1.2043105391e+00
1.2043111944e+00
1.2043119803e+00
1.2043129043e+00
1.2043139734e+00
1.2043151950e+00
1.2043165767e+00
1.2043181269e+00
1.2043223715e+00
1.2013517545e+00
1.2013619802e+00
1.2013856584e+00
1.2014213316e+00
1.2014685495e+00
1.2015267290e+00
1.2015951622e+00
1.2016730356e+00
1.2017594400e+00
1.2018533946e+00
1.2019538588e+00
1.2020597578e+00
1.2021699940e+00
1.2022834731e+00
1.2023991141e+00
1.2025158727e+00
1.2026327484e+00
1.2027488050e+00
1.2028631738e+00
1.2029750695e+00
1.2030837894e+00
1.2031887244e+00
1.2032893548e+00
1.2033852563e+00
1.2034760930e+00
1.2035616188e+00
1.2036416689e+00
1.2037161578e+00
1.2037850693e+00
1.2038484528e+00
1.2039064132e+00
1.2039591053e+00
1.2040067247e+00
1.2040495019e+00
1.2040876940e+00
1.2041215791e+00
1.2041514492e+00
1.2041776051e+00
1.2042003509e+00
1.2042199899e+00
1.2042368198e+00
1.2042511301e+00
1.2042631983e+00
1.2042732881e+00
1.2042816473e+00
1.2042885062e+00
1.2042940769e+00
1.2042985524e+00
1.2043021069e+00
1.2043048956e+00
1.2043070551e+00
1.2043087048e+00
1.2043099473e+00
1.2043108696e+00
1.2043115448e+00
1.2043120332e+00
1.2043123835e+00
1.2043126348e+00
1.2043128170e+00
1.2043129534e+00
1.2043130605e+00
1.2043131502e+00
1.2043132300e+00
1.2043133046e+00
1.2043133757e+00
1.2043134436e+00
1.2043135068e+00
1.2043135635e+00
1.2043136108e+00
1.2043136463e+00
1.2043136669e+00
1.2043136705e+00