# vtk DataFile Version 2.0
Blank
ASCII
DATASET STRUCTURED_GRID
DIMENSIONS 101 101 2
POINTS 20402 float
0.0000000000e+00 0.0000000000e+00 0.0000000000e+00
1.0000000000e-02 0.0000000000e+00 0.0000000000e+00
2.0000000000e-02 0.0000000000e+00 0.0000000000e+00
3.0000000000e-02 0.0000000000e+00 0.0000000000e+00
4.0000000000e-02 0.0000000000e+00 0.0000000000e+00
5.0000000000e-02 0.0000000000e+00 0.0000000000e+00
6.0000000000e-02 0.0000000000e+00 0.0000000000e+00
7.0000000000e-02 0.0000000000e+00 0.0000000000e+00
8.0000000000e-02 0.0000000000e+00 0.0000000000e+00
9.0000000000e-02 0.0000000000e+00 0.0000000000e+00
1.0000000000e-01 0.0000000000e+00 0.0000000000e+00
1.1000000000e-01 0.0000000000e+00 0.0000000000e+00
1.2000000000e-01 0.0000000000e+00 0.0000000000e+00
1.3000000000e-01 0.0000000000e+00 0.0000000000e+00
1.4000000000e-01 0.0000000000e+00 0.0000000000e+00
1.5000000000e-01 0.0000000000e+00 0.0000000000e+00
1.6000000000e-01 0.0000000000e+00 0.0000000000e+00
1.7000000000e-01 0.0000000000e+00 0.0000000000e+00
1.8000000000e-01 0.0000000000e+00 0.0000000000e+00
1.9000000000e-01 0.0000000000e+00 0.0000000000e+00
2.0000000000e-01 0.0000000000e+00 0.0000000000e+00
2.1000000000e-01 0.0000000000e+00 0.0000000000e+00
2.2000000000e-01 0.0000000000e+00 0.0000000000e+00
2.3000000000e-01 0.0000000000e+00 0.0000000000e+00
2.4000000000e-01 0.0000000000e+00 0.0000000000e+00
2.5000000000e-01 0.0000000000e+00 0.0000000000e+00
2.6000000000e-01 0.0000000000e+00 0.0000000000e+00
2.7000000000e-01 0.0000000000e+00 0.0000000000e+00
2.8000000000e-01 0.0000000000e+00 0.0000000000e+00
2.9000000000e-01 0.0000000000e+00 0.0000000000e+00
3.0000000000e-01 0.0000000000e+00 0.0000000000e+00
3.1000000000e-01 0.0000000000e+00 0.0000000000e+00
3.2000000000e-01 0.0000000000e+00 0.0000000000e+00
3.3000000000e-01 0.0000000000e+00 0.0000000000e+00
3.4000000000e-01 0.0000000000e+00 0.0000000000e+00
3.5000000000e-01 0.0000000000e+00 0.0000000000e+00
3.6000000000e-01 0.0000000000e+00 0.0000000000e+00
3.7000000000e-01 0.0000000000e+00 0.0000000000e+00
3.8000000000e-01 0.0000000000e+00 0.0000000000e+00
3.9000000000e-01 0.0000000000e+00 0.0000000000e+00
4.0000000000e-01 0.0000000000e+00 0.0000000000e+00
4.1000000000e-01 0.0000000000e+00 0.0000000000e+00
4.2000000000e-01 0.0000000000e+00 0.0000000000e+00
4.3000000000e-01 0.0000000000e+00 0.0000000000e+00
4.4000000000e-01 0.0000000000e+00 0.0000000000e+00
4.5000000000e-01 0.0000000000e+00 0.0000000000e+00
4.6000000000e-01 0.0000000000e+00 0.0000000000e+00
4.7000000000e-01 0.0000000000e+00 0.0000000000e+00
4.8000000000e-01 0.0000000000e+00 0.0000000000e+00
4.9000000000e-01 0.0000000000e+00 0.0000000000e+00
5.0000000000e-01 0.0000000000e+00 0.0000000000e+00
5.1000000000e-01 0.0000000000e+00 0.0000000000e+00
5.2000000000e-01 0.0000000000e+00 0.0000000000e+00
5.3000000000e-01 0.0000000000e+00 0.0000000000e+00
5.4000000000e-01 0.0000000000e+00 0.0000000000e+00
5.5000000000e-01 0.0000000000e+00 0.0000000000e+00
5.6000000000e-01 0.0000000000e+00 0.0000000000e+00
5.7000000000e-01 0.0000000000e+00 0.0000000000e+00
5.8000000000e-01 0.0000000000e+00 0.0000000000e+00
5.9000000000e-01 0.0000000000e+00 0.0000000000e+00
6.0000000000e-01 0.0000000000e+00 0.0000000000e+00
6.1000000000e-01 0.0000000000e+00 0.0000000000e+00
6.2000000000e-01 0.0000000000e+00 0.0000000000e+00
6.3000000000e-01 0.0000000000e+00 0.0000000000e+00
6.4000000000e-01 0.0000000000e+00 0.0000000000e+00
6.5000000000e-01 0.0000000000e+00 0.0000000000e+00
6.6000000000e-01 0.0000000000e+00 0.0000000000e+00
6.7000000000e-01 0.0000000000e+00 0.0000000000e+00
6.8000000000e-01 0.0000000000e+00 0.0000000000e+00
6.9000000000e-01 0.0000000000e+00 0.0000000000e+00
7.0000000000e-01 0.0000000000e+00 0.0000000000e+00
7.1000000000e-01 0.0000000000e+00 0.0000000000e+00
7.2000000000e-01 0.0000000000e+00 0.0000000000e+00
7.3000000000e-01 0.0000000000e+00 0.0000000000e+00
7.4000000000e-01 0.0000000000e+00 0.0000000000e+00
7.5000000000e-01 0.0000000000e+00 0.0000000000e+00
7.6000000000e-01 0.0000000000e+00 0.0000000000e+00
7.7000000000e-01 0.0000000000e+00 0.0000000000e+00
7.8000000000e-01 0.0000000000e+00 0.0000000000e+00
7.9000000000e-01 0.0000000000e+00 0.0000000000e+00
8.0000000000e-01 0.0000000000e+00 0.0000000000e+00
8.1000000000e-01 0.0000000000e+00 0.0000000000e+00
8.2000000000e-01 0.0000000000e+00 0.0000000000e+00
8.3000000000e-01 0.0000000000e+00 0.0000000000e+00
8.4000000000e-01 0.0000000000e+00 0.0000000000e+00
8.5000000000e-01 0.0000000000e+00 0.0000000000e+00
8.6000000000e-01 0.0000000000e+00 0.0000000000e+00
8.7000000000e-01 0.0000000000e+00 0.0000000000e+00
8.8000000000e-01 0.0000000000e+00 0.0000000000e+00
8.9000000000e-01 0.0000000000e+00 0.0000000000e+00
9.0000000000e-01 0.0000000000e+00 0.0000000000e+00
9.1000000000e-01 0.0000000000e+00 0.0000000000e+00
9.2000000000e-01 0.0000000000e+00 0.0000000000e+00
9.3000000000e-01 0.0000000000e+00 0.0000000000e+00
9.4000000000e-01 0.0000000000e+00 0.0000000000e+00
9.5000000000e-01 0.0000000000e+00 0.0000000000e+00
9.6000000000e-01 0.0000000000e+00 0.0000000000e+00
9.7000000000e-01 0.0000000000e+00 0.0000000000e+00
9.8000000000e-01 0.0000000000e+00 0.0000000000e+00
9.9000000000e-01 0.0000000000e+00 0.0000000000e+00
1.0000000000e+00 0.0000000000e+00 0.0000000000e+00
0.0000000000e+00 1.0000000000e-02 0.0000000000e+00
1.0000000000e-02 1.0000000000e-02 0.0000000000e+00
2.0000000000e-02 1.0000000000e-02 0.0000000000e+00
3.0000000000e-02 1.0000000000e-02 0.0000000000e+00
4.0000000000e-02 1.0000000000e-02 0.0000000000e+00
5.0000000000e-02 1.0000000000e-02 0.0000000000e+00
6.0000000000e-02 1.0000000000e-02 0.0000000000e+00
7.0000000000e-02 1.0000000000e-02 0.0000000000e+00
8.0000000000e-02 1.0000000000e-02 0.0000000000e+00
9.0000000000e-02 1.0000000000e-02 0.0000000000e+00
1.0000000000e-01 1.0000000000e-02 0.0000000000e+00
1.1000000000e-01 1.0000000000e-02 0.0000000000e+00
1.2000000000e-01 1.0000000000e-02 0.0000000000e+00
1.3000000000e-01 1.0000000000e-02 0.0000000000e+00
1.4000000000e-01 1.0000000000e-02 0.0000000000e+00
1.5000000000e-01 1.0000000000e-02 0.0000000000e+00
1.6000000000e-01 1.0000000000e-02 0.0000000000e+00
1.7000000000e-01 1.0000000000e-02 0.0000000000e+00
1.8000000000e-01 1.0000000000e-02 0.0000000000e+00
1.9000000000e-01 1.0000000000e-02 0.0000000000e+00
2.0000000000e-01 1.0000000000e-02 0.0000000000e+00
2.1000000000e-01 1.0000000000e-02 0.0000000000e+00
2.2000000000e-01 1.0000000000e-02 0.0000000000e+00
2.3000000000e-01 1.0000000000e-02 0.0000000000e+00
2.4000000000e-01 1.0000000000e-02 0.0000000000e+00
2.5000000000e-01 1.0000000000e-02 0.0000000000e+00
2.6000000000e-01 1.0000000000e-02 0.0000000000e+00
2.7000000000e-01 1.0000000000e-02 0.0000000000e+00
2.8000000000e-01 1.0000000000e-02 0.0000000000e+00
2.9000000000e-01 1.0000000000e-02 0.0000000000e+00
3.0000000000e-01 1.0000000000e-02 0.0000000000e+00
3.1000000000e-01 1.0000000000e-02 0.0000000000e+00
3.2000000000e-01 1.0000000000e-02 0.0000000000e+00
3.3000000000e-01 1.0000000000e-02 0.0000000000e+00
3.4000000000e-01 1.0000000000e-02 0.0000000000e+00
3.5000000000e-01 1.0000000000e-02 0.0000000000e+00
3.6000000000e-01 1.0000000000e-02 0.0000000000e+00
3.7000000000e-01 1.0000000000e-02 0.0000000000e+00
3.8000000000e-01 1.0000000000e-02 0.0000000000e+00
3.9000000000e-01 1.0000000000e-02 0.0000000000e+00
4.0000000000e-01 1.0000000000e-02 0.0000000000e+00
4.1000000000e-01 1.0000000000e-02 0.0000000000e+00
4.2000000000e-01 1.0000000000e-02 0.0000000000e+00
4.3000000000e-01 1.0000000000e-02 0.0000000000e+00
4.4000000000e-01 1.0000000000e-02 0.0000000000e+00
4.5000000000e-01 1.0000000000e-02 0.0000000000e+00
4.6000000000e-01 1.0000000000e-02 0.0000000000e+00
4.7000000000e-01 1.0000000000e-02 0.0000000000e+00
4.8000000000e-01 1.0000000000e-02 0.0000000000e+00
4.9000000000e-01 1.0000000000e-02 0.0000000000e+00
5.0000000000e-01 1.0000000000e-02 0.0000000000e+00
5.1000000000e-01 1.0000000000e-02 0.0000000000e+00
5.2000000000e-01 1.0000000000e-02 0.0000000000e+00
5.3000000000e-01 1.0000000000e-02 0.0000000000e+00
5.4000000000e-01 1.0000000000e-02 0.0000000000e+00
5.5000000000e-01 1.0000000000e-02 0.0000000000e+00
5.6000000000e-01 1.0000000000e-02 0.0000000000e+00
5.7000000000e-01 1.0000000000e-02 0.0000000000e+00
5.8000000000e-01 1.0000000000e-02 0.0000000000e+00
5.9000000000e-01 1.0000000000e-02 0.0000000000e+00
6.0000000000e-01 1.0000000000e-02 0.0000000000e+00
6.1000000000e-01 1.0000000000e-02 0.0000000000e+00
6.2000000000e-01 1.0000000000e-02 0.0000000000e+00
6.3000000000e-01 1.0000000000e-02 0.0000000000e+00
6.4000000000e-01 1.0000000000e-02 0.0000000000e+00
6.5000000000e-01 1.0000000000e-02 0.0000000000e+00
6.6000000000e-01 1.0000000000e-02 0.0000000000e+00
6.7000000000e-01 1.0000000000e-02 0.0000000000e+00
6.8000000000e-01 1.0000000000e-02 0.0000000000e+00
6.9000000000e-01 1.0000000000e-02 0.0000000000e+00
7.0000000000e-01 1.0000000000e-02 0.0000000000e+00
7.1000000000e-01 1.0000000000e-02 0.0000000000e+00
7.2000000000e-01 1.0000000000e-02 0.0000000000e+00
7.3000000000e-01 1.0000000000e-02 0.0000000000e+00
7.4000000000e-01 1.0000000000e-02 0.0000000000e+00
7.5000000000e-01 1.0000000000e-02 0.0000000000e+00
7.6000000000e-01 1.0000000000e-02 0.0000000000e+00
7.7000000000e-01 1.0000000000e-02 0.0000000000e+00
7.8000000000e-01 1.0000000000e-02 0.0000000000e+00
7.9000000000e-01 1.0000000000e-02 0.0000000000e+00
8.0000000000e-01 1.0000000000e-02 0.0000000000e+00
8.1000000000e-01 1.0000000000e-02 0.0000000000e+00
8.2000000000e-01 1.0000000000e-02 0.0000000000e+00
8.3000000000e-01 1.0000000000e-02 0.0000000000e+00
8.4000000000e-01 1.0000000000e-02 0.0000000000e+00
8.5000000000e-01 1.0000000000e-02 0.0000000000e+00
8.6000000000e-01 1.0000000000e-02 0.0000000000e+00
8.7000000000e-01 1.0000000000e-02 0.0000000000e+00
8.8000000000e-01 1.0000000000e-02 0.0000000000e+00
8.9000000000e-01 1.0000000000e-02 0.0000000000e+00
9.0000000000e-01 1.0000000000e-02 0.0000000000e+00
9.1000000000e-01 1.0000000000e-02 0.0000000000e+00
9.2000000000e-01 1.0000000000e-02 0.0000000000e+00
[...]
CELL_DATA 10000

SCALARS massDensity float
LOOKUP_TABLE default
1.2005073110e+00
1.2005238997e+00
1.2005531720e+00
1.2005974332e+00
1.2006561334e+00
1.2007285559e+00
1.2008138362e+00
1.2009109775e+00
1.2010188712e+00
1.2011363158e+00
1.2012620398e+00
1.2013947234e+00
1.2015330221e+00
1.2016755870e+00
1.2018210875e+00
1.2019682296e+00
1.2021157745e+00
1.2022625535e+00
1.2024074823e+00
1.2025495708e+00
1.2026879326e+00
1.2028217897e+00
1.2029504769e+00
1.2030734414e+00
1.2031902426e+00
1.2033005477e+00
1.2034041276e+00
1.2035008496e+00
1.2035906703e+00
1.2036736265e+00
1.2037498265e+00
1.2038194408e+00
1.2038826925e+00
1.2039398480e+00
1.2039912084e+00
1.2040371009e+00
1.2040778712e+00
1.2041138766e+00
1.2041454792e+00
1.2041730410e+00
1.2041969183e+00
1.2042174586e+00
1.2042349964e+00
1.2042498511e+00
1.2042623244e+00
1.2042726990e+00
1.2042812375e+00
1.2042881818e+00
1.2042937526e+00
1.2042981495e+00
1.2043015518e+00
1.2043041184e+00
1.2043059892e+00
1.2043072858e+00
1.2043081126e+00
1.2043085582e+00
1.2043086965e+00
1.2043085883e+00
1.2043082825e+00
1.2043078177e+00
1.2043072233e+00
1.2043065210e+00
1.2043057261e+00
1.2043048488e+00
1.2043038949e+00
1.2043028675e+00
1.2043017675e+00
1.2043005945e+00
1.2042993478e+00
1.2042980268e+00
1.2042966317e+00
1.2042951639e+00
1.2042936266e+00
1.2042920245e+00
1.2042903649e+00
1.2042886567e+00
1.2042869115e+00
1.2042851424e+00
1.2042833650e+00
1.2042815962e+00
1.2042798547e+00
1.2042781599e+00
1.2042765322e+00
1.2042749927e+00
1.2042735623e+00
1.2042722622e+00
1.2042711139e+00
1.2042701389e+00
1.2042693597e+00
1.2042688001e+00
1.2042684863e+00
1.2042684470e+00
1.2042687141e+00
1.2042693217e+00
1.2042703053e+00
1.2042716997e+00
1.2042735367e+00
1.2042758437e+00
1.2042786374e+00
1.2042735120e+00
1.2005238997e+00
1.2005412074e+00
1.2005707972e+00
1.2006152245e+00
1.2006739561e+00
1.2007462906e+00
1.2008313743e+00
1.2009282213e+00
1.2010357309e+00
1.2011527109e+00
1.2012778969e+00
1.2014099774e+00
1.2015476141e+00
1.2016894657e+00
1.2018342075e+00
1.2019805525e+00
1.2021272675e+00
1.2022731911e+00
1.2024172448e+00
1.2025584459e+00
1.2026959144e+00
1.2028288801e+00
1.2029566842e+00
1.2030787820e+00
1.2031947397e+00
1.2033042323e+00
1.2034070375e+00
1.2035030296e+00
1.2035921715e+00
1.2036745060e+00
1.2037501465e+00
1.2038192681e+00
1.2038820970e+00
1.2039389023e+00
1.2039899864e+00
1.2040356766e+00
1.2040763177e+00
1.2041122644e+00
1.2041438759e+00
1.2041715093e+00
1.2041955159e+00
1.2042162369e+00
1.2042340001e+00
1.2042491176e+00
1.2042618837e+00
1.2042725737e+00
1.2042814431e+00
1.2042887268e+00
1.2042946393e+00
1.2042993746e+00
1.2043031074e+00
1.2043059926e+00
1.2043081673e+00
1.2043097511e+00
1.2043108475e+00
1.2043115449e+00
1.2043119180e+00
1.2043120290e+00
1.2043119289e+00
1.2043116589e+00
1.2043112513e+00
1.2043107311e+00
1.2043101169e+00
1.2043094225e+00
1.2043086570e+00
1.2043078267e+00
1.2043069355e+00
1.2043059858e+00
1.2043049790e+00
1.2043039164e+00
1.2043027995e+00
1.2043016304e+00
1.2043004122e+00
1.2042991494e+00
1.2042978476e+00
1.2042965142e+00
1.2042951577e+00
1.2042937883e+00
1.2042924172e+00
1.2042910568e+00
1.2042897205e+00
1.2042884223e+00
1.2042871766e+00
1.2042859979e+00
1.2042849011e+00
1.2042839007e+00
1.2042830112e+00
1.2042822474e+00
1.2042816239e+00
1.2042811561e+00
1.2042808599e+00
1.2042807520e+00
1.2042808495e+00
1.2042811694e+00
1.2042817270e+00
1.2042825332e+00
1.2042835915e+00
1.2042848914e+00
1.2042863954e+00
1.2042792113e+00
1.2005531720e+00
1.2005707972e+00
1.2006002723e+00
1.2006444311e+00
1.2007027542e+00
1.2007745518e+00
1.2008589832e+00
1.2009550728e+00
1.2010617328e+00
1.2011777812e+00
1.2013019668e+00
1.2014329884e+00
1.2015695207e+00
1.2017102326e+00
1.2018538118e+00
1.2019989811e+00
1.2021445190e+00
1.2022892725e+00
1.2024321737e+00
1.2025722474e+00
1.2027086223e+00
1.2028405343e+00
1.2029673317e+00
1.2030884741e+00
1.2032035328e+00
1.2033121856e+00
1.2034142130e+00
1.2035094904e+00
1.2035979816e+00
1.2036797289e+00
1.2037548449e+00
1.2038235023e+00
1.2038859253e+00
1.2039423794e+00
1.2039931634e+00
1.2040386004e+00
1.2040790305e+00
1.2041148039e+00
1.2041462746e+00
1.2041737950e+00
1.2041977113e+00
1.2042183602e+00
1.2042360648e+00
1.2042511334e+00
1.2042638566e+00
1.2042745064e+00
1.2042833357e+00
1.2042905773e+00
1.2042964439e+00
1.2043011287e+00
1.2043048053e+00
1.2043076287e+00
1.2043097361e+00
1.2043112475e+00
1.2043122670e+00
1.2043128840e+00
1.2043131743e+00
1.2043132009e+00
1.2043130160e+00
1.2043126618e+00
1.2043121715e+00
1.2043115710e+00
1.2043108799e+00
1.2043101122e+00
1.2043092781e+00
1.2043083839e+00
1.2043074342e+00
1.2043064314e+00
1.2043053775e+00
1.2043042737e+00
1.2043031218e+00
1.2043019240e+00
1.2043006836e+00
1.2042994049e+00
1.2042980938e+00
1.2042967571e+00
1.2042954037e+00
1.2042940431e+00
1.2042926864e+00
1.2042913456e+00
1.2042900334e+00
1.2042887631e+00
1.2042875484e+00
1.2042864031e+00
1.2042853407e+00
1.2042843749e+00
1.2042835189e+00
1.2042827856e+00
1.2042821879e+00
1.2042817383e+00
1.2042814492e+00
1.2042813325e+00
1.2042813992e+00
1.2042816582e+00
1.2042821146e+00
1.2042827670e+00
1.2042836027e+00
1.2042845909e+00
1.2042856696e+00
1.2042775873e+00
1.2005974332e+00
1.2006152245e+00
1.2006444311e+00
1.2006881287e+00
1.2007458040e+00
1.2008167790e+00
1.2009002244e+00
1.2009951803e+00
1.2011005724e+00
1.2012152360e+00
1.2013379347e+00
1.2014673857e+00
1.2016022787e+00
1.2017413013e+00
1.2018831558e+00
1.2020265825e+00
1.2021703737e+00
1.2023133924e+00
1.2024545828e+00
1.2025929834e+00
1.2027277328e+00
1.2028580782e+00
1.2029833753e+00
1.2031030920e+00
1.2032168046e+00
1.2033241962e+00
1.2034250497e+00
1.2035192430e+00
1.2036067401e+00
1.2036875829e+00
1.2037618820e+00
1.2038298080e+00
1.2038915809e+00
1.2039474623e+00
1.2039977458e+00
1.2040427489e+00
1.2040828061e+00
1.2041182611e+00
1.2041494616e+00
1.2041767538e+00
1.2042004779e+00
1.2042209642e+00
1.2042385306e+00
1.2042534799e+00
1.2042660983e+00
1.2042766536e+00
1.2042853952e+00
1.2042925528e+00
1.2042983369e+00
1.2043029390e+00
1.2043065316e+00
1.2043092688e+00
1.2043112875e+00
1.2043127080e+00
1.2043136347e+00
1.2043141577e+00
1.2043143532e+00
1.2043142857e+00
1.2043140078e+00
1.2043135627e+00
1.2043129847e+00
1.2043123003e+00
1.2043115298e+00
1.2043106880e+00
1.2043097853e+00
1.2043088288e+00
1.2043078232e+00
1.2043067715e+00
1.2043056755e+00
1.2043045369e+00
1.2043033574e+00
1.2043021394e+00
1.2043008862e+00
1.2042996021e+00
1.2042982928e+00
1.2042969653e+00
1.2042956278e+00
1.2042942899e+00
1.2042929621e+00
1.2042916560e+00
1.2042903835e+00
1.2042891575e+00
1.2042879905e+00
1.2042868955e+00
1.2042858849e+00
1.2042849710e+00
1.2042841656e+00
1.2042834798e+00
1.2042829242e+00
1.2042825087e+00
1.2042822422e+00
1.2042821325e+00
1.2042821854e+00
1.2042824036e+00
1.2042827852e+00
1.2042833214e+00
1.2042839923e+00
1.2042847623e+00
1.2042855725e+00
1.2042770743e+00
1.2006561334e+00
1.2006739561e+00
1.2007027542e+00
1.2007458040e+00
1.2008025996e+00
1.2008724727e+00
1.2009546098e+00
1.2010480659e+00
1.2011517870e+00
1.2012646264e+00
1.2013853704e+00
1.2015127556e+00
1.2016454956e+00
1.2017822975e+00
1.2019218872e+00
1.2020630239e+00
1.2022045214e+00
1.2023452602e+00
1.2024842033e+00
1.2026204039e+00
1.2027530168e+00
1.2028813003e+00
1.2030046226e+00
1.2031224596e+00
1.2032343960e+00
1.2033401196e+00
1.2034394182e+00
1.2035321710e+00
1.2036183431e+00
1.2036979752e+00
1.2037711761e+00
1.2038381124e+00
1.2038990001e+00
1.2039540949e+00
1.2040036845e+00
1.2040480795e+00
1.2040876071e+00
1.2041226035e+00
1.2041534089e+00
1.2041803617e+00
1.2042037946e+00
1.2042240309e+00
1.2042413819e+00
1.2042561439e+00
1.2042685976e+00
1.2042790058e+00
1.2042876134e+00
1.2042946466e+00
1.2043003130e+00
1.2043048016e+00
1.2043082832e+00
1.2043109109e+00
1.2043128208e+00
1.2043141329e+00
1.2043149519e+00
1.2043153680e+00
1.2043154583e+00
1.2043152876e+00
1.2043149096e+00
1.2043143682e+00
1.2043136983e+00
1.2043129273e+00
1.2043120761e+00
1.2043111600e+00
1.2043101900e+00
1.2043091735e+00
1.2043081156e+00
1.2043070194e+00
1.2043058871e+00
1.2043047204e+00
1.2043035211e+00
1.2043022916e+00
1.2043010351e+00
1.2042997560e+00
1.2042984598e+00
1.2042971532e+00
1.2042958443e+00
1.2042945422e+00
1.2042932570e+00
1.2042919997e+00
1.2042907817e+00
1.2042896149e+00
1.2042885110e+00
1.2042874819e+00
1.2042865390e+00
1.2042856930e+00
1.2042849542e+00
1.2042843319e+00
1.2042838345e+00
1.2042834694e+00
1.2042832425e+00
1.2042831580e+00
1.2042832176e+00
1.2042834200e+00
1.2042837590e+00
1.2042842222e+00
1.2042847884e+00
1.2042854251e+00
1.2042860854e+00
1.2042775609e+00
1.2007285559e+00
1.2007462906e+00
1.2007745518e+00
1.2008167790e+00
1.2008724727e+00
1.2009409786e+00
1.2010214978e+00
1.2011131066e+00
1.2012147708e+00
1.2013253693e+00
1.2014437113e+00
1.2015685616e+00
1.2016986579e+00
1.2018327360e+00
1.2019695456e+00
1.2021078735e+00
1.2022465559e+00
1.2023844981e+00
1.2025206826e+00
1.2026541842e+00
1.2027841733e+00
1.2029099255e+00
1.2030308208e+00
1.2031463476e+00
1.2032560981e+00
1.2033597680e+00
1.2034571485e+00
1.2035481224e+00
1.2036326544e+00
1.2037107850e+00
1.2037826195e+00
1.2038483208e+00
1.2039080991e+00
1.2039622040e+00
1.2040109154e+00
1.2040545362e+00
1.2040933849e+00
1.2041277892e+00
1.2041580800e+00
1.2041845871e+00
1.2042076346e+00
1.2042275375e+00
1.2042445992e+00
1.2042591089e+00
1.2042713406e+00
1.2042815515e+00
1.2042899811e+00
1.2042968515e+00
1.2043023665e+00
1.2043067124e+00
1.2043100577e+00
1.2043125540e+00
1.2043143362e+00
1.2043155240e+00
1.2043162215e+00
1.2043165195e+00
1.2043164951e+00
1.2043162138e+00
1.2043157298e+00
1.2043150877e+00
1.2043143231e+00
1.2043134641e+00
1.2043125319e+00
1.2043115426e+00
1.2043105075e+00
1.2043094344e+00
1.2043083285e+00
1.2043071934e+00
1.2043060311e+00
1.2043048436e+00
1.2043036326e+00
1.2043024006e+00
1.2043011506e+00
1.2042998869e+00
1.2042986147e+00
1.2042973407e+00
1.2042960724e+00
1.2042948186e+00
1.2042935889e+00
1.2042923937e+00
1.2042912437e+00
1.2042901498e+00
1.2042891231e+00
1.2042881742e+00
1.2042873132e+00
1.2042865497e+00
1.2042858922e+00
1.2042853484e+00
1.2042849246e+00
1.2042846259e+00
1.2042844556e+00
1.2042844152e+00
1.2042845036e+00
1.2042847166e+00
1.2042850460e+00
1.2042854782e+00
1.2042859940e+00
1.2042865666e+00
1.2042871622e+00
1.2042789208e+00
1.2008138362e+00
1.2008313743e+00
1.2008589832e+00
1.2009002244e+00
1.2009546098e+00
1.2010214978e+00
1.2011001102e+00
1.2011895433e+00
1.2012887900e+00
1.2013967545e+00
1.2015122770e+00
1.2016341503e+00
1.2017611450e+00
1.2018920256e+00
1.2020255745e+00
1.2021606057e+00
1.2022959863e+00
1.2024306461e+00
1.2025635949e+00
1.2026939281e+00
1.2028208387e+00
1.2029436184e+00
1.2030616644e+00
1.2031744763e+00
1.2032816582e+00
1.2033829118e+00
1.2034780348e+00
1.2035669119e+00
1.2036495092e+00
1.2037258650e+00
1.2037960820e+00
1.2038603178e+00
1.2039187766e+00
1.2039717003e+00
1.2040193607e+00
1.2040620512e+00
1.2041000808e+00
1.2041337671e+00
1.2041634312e+00
1.2041893926e+00
1.2042119659e+00
1.2042314566e+00
1.2042481595e+00
1.2042623556e+00
1.2042743115e+00
1.2042842777e+00
1.2042924880e+00
1.2042991594e+00
1.2043044918e+00
1.2043086677e+00
1.2043118534e+00
1.2043141980e+00
1.2043158356e+00
1.2043168845e+00
1.2043174488e+00
1.2043176187e+00
1.2043174718e+00
1.2043170738e+00
1.2043164796e+00
1.2043157339e+00
1.2043148733e+00
1.2043139260e+00
1.2043129141e+00
1.2043118538e+00
1.2043107570e+00
1.2043096316e+00
1.2043084833e+00
1.2043073153e+00
1.2043061303e+00
1.2043049298e+00
1.2043037158e+00
1.2043024905e+00
1.2043012570e+00
1.2043000190e+00
1.2042987819e+00
1.2042975516e+00
1.2042963355e+00
1.2042951419e+00
1.2042939798e+00
1.2042928589e+00
1.2042917892e+00
1.2042907809e+00
1.2042898440e+00
1.2042889879e+00
1.2042882218e+00
1.2042875537e+00
1.2042869907e+00
1.2042865389e+00
1.2042862027e+00
1.2042859853e+00
1.2042858879e+00
1.2042859099e+00
1.2042860482e+00
1.2042862969e+00
1.2042866469e+00
1.2042870854e+00
1.2042875957e+00
1.2042881573e+00
1.2042887471e+00
1.2042810346e+00
1.2009109775e+00
1.2009282213e+00
1.2009550728e+00
1.2009951803e+00
1.2010480659e+00
1.2011131066e+00
1.2011895433e+00
1.2012764993e+00
1.2013729935e+00
1.2014779631e+00
1.2015902785e+00
1.2017087690e+00
1.2018322374e+00
1.2019594856e+00
1.2020893281e+00
1.2022206149e+00
1.2023522427e+00
1.2024831743e+00
1.2026124454e+00
1.2027391794e+00
1.2028625904e+00
1.2029819925e+00
1.2030967983e+00
1.2032065237e+00
1.2033107826e+00
1.2034092867e+00
1.2035018382e+00
1.2035883260e+00
1.2036687159e+00
1.2037430452e+00
1.2038114125e+00
1.2038739703e+00
1.2039309152e+00
1.2039824813e+00
1.2040289304e+00
1.2040705463e+00
1.2041076269e+00
1.2041404789e+00
1.2041694120e+00
1.2041947352e+00
1.2042167517e+00
1.2042357574e+00
1.2042520369e+00
1.2042658626e+00
1.2042774926e+00
1.2042871704e+00
1.2042951231e+00
1.2043015624e+00
1.2043066832e+00
1.2043106645e+00
1.2043136691e+00
1.2043158444e+00
1.2043173220e+00
1.2043182197e+00
1.2043186404e+00
1.2043186744e+00
1.2043183989e+00
1.2043178800e+00
1.2043171726e+00
1.2043163223e+00
1.2043153656e+00
1.2043143316e+00
1.2043132424e+00
1.2043121149e+00
1.2043109608e+00
1.2043097889e+00
1.2043086043e+00
1.2043074109e+00
1.2043062109e+00
1.2043050061e+00
1.2043037982e+00
1.2043025894e+00
1.2043013822e+00
1.2043001805e+00
1.2042989889e+00
1.2042978133e+00
1.2042966605e+00
1.2042955382e+00
1.2042944549e+00
1.2042934195e+00
1.2042924414e+00
1.2042915297e+00
1.2042906936e+00
1.2042899415e+00
1.2042892813e+00
1.2042887197e+00
1.2042882627e+00
1.2042879145e+00
1.2042876783e+00
1.2042875553e+00
1.2042875453e+00
1.2042876459e+00
1.2042878527e+00
1.2042881590e+00
1.2042885556e+00
1.2042890307e+00
1.2042895704e+00
1.2042901595e+00
1.2042907828e+00
1.2042837944e+00
1.2010188712e+00
1.2010357309e+00
1.2010617328e+00
1.2011005724e+00
1.2011517870e+00
1.2012147708e+00
1.2012887900e+00
1.2013729935e+00
1.2014664335e+00
1.2015680784e+00
1.2016768376e+00
1.2017915750e+00
1.2019111346e+00
1.2020343541e+00
1.2021600887e+00
1.2022872230e+00
1.2024146920e+00
1.2025414893e+00
1.2026666845e+00
1.2027894272e+00
1.2029089592e+00
1.2030246149e+00
1.2031358281e+00
1.2032421288e+00
1.2033431450e+00
1.2034385965e+00
1.2035282930e+00
1.2036121255e+00
1.2036900615e+00
1.2037621357e+00
1.2038284431e+00
1.2038891294e+00
1.2039443844e+00
1.2039944322e+00
1.2040395249e+00
1.2040799346e+00
1.2041159481e+00
1.2041478596e+00
1.2041759671e+00
1.2042005672e+00
1.2042219521e+00
1.2042404059e+00
1.2042562032e+00
1.2042696065e+00
1.2042808653e+00
1.2042902147e+00
1.2042978753e+00
1.2043040523e+00
1.2043089358e+00
1.2043127002e+00
1.2043155053e+00
1.2043174953e+00
1.2043188004e+00
1.2043195363e+00
1.2043198056e+00
1.2043196974e+00
1.2043192892e+00
1.2043186468e+00
1.2043178255e+00
1.2043168708e+00
1.2043158200e+00
1.2043147020e+00
1.2043135397e+00
1.2043123497e+00
1.2043111446e+00
1.2043099325e+00
1.2043087193e+00
1.2043075084e+00
1.2043063022e+00
1.2043051022e+00
1.2043039100e+00
1.2043027274e+00
1.2043015568e+00
1.2043004016e+00
1.2042992662e+00
1.2042981557e+00
1.2042970766e+00
1.2042960359e+00
1.2042950415e+00
1.2042941017e+00
1.2042932250e+00
1.2042924196e+00
1.2042916938e+00
1.2042910549e+00
1.2042905097e+00
1.2042900640e+00
1.2042897220e+00
1.2042894870e+00
1.2042893606e+00
1.2042893427e+00
1.2042894318e+00
1.2042896242e+00
1.2042899148e+00
1.2042902962e+00
1.2042907595e+00
1.2042912942e+00
1.2042918887e+00
1.2042925316e+00
1.2042932128e+00
1.2042871031e+00
1.2011363158e+00
1.2011527109e+00
1.2011777812e+00
1.2012152360e+00
1.2012646264e+00
1.2013253693e+00
1.2013967545e+00
1.2014779631e+00
1.2015680784e+00
1.2016661085e+00
1.2017709988e+00
1.2018816570e+00
1.2019969656e+00
1.2021158071e+00
1.2022370752e+00
1.2023596975e+00
1.2024826449e+00
1.2026049501e+00
1.2027257140e+00
1.2028441195e+00
1.2029594339e+00
1.2030710180e+00
1.2031783243e+00
1.2032809019e+00
1.2033783905e+00
1.2034705216e+00
1.2035571103e+00
1.2036380522e+00
1.2037133147e+00
1.2037829310e+00
1.2038469910e+00
1.2039056347e+00
1.2039590425e+00
1.2040074293e+00
1.2040510357e+00
1.2040901225e+00
1.2041249631e+00
1.2041558396e+00
1.2041830365e+00
1.2042068381e+00
1.2042275238e+00
1.2042453663e+00
1.2042606287e+00
1.2042735633e+00
1.2042844101e+00
1.2042933958e+00
1.2043007334e+00
1.2043066218e+00
1.2043112452e+00
1.2043147739e+00
1.2043173633e+00
1.2043191552e+00
1.2043202771e+00
1.2043208434e+00
1.2043209550e+00
1.2043207009e+00
1.2043201577e+00
1.2043193913e+00
1.2043184568e+00
1.2043174002e+00
1.2043162584e+00
1.2043150612e+00
1.2043138310e+00
1.2043125852e+00
1.2043113358e+00
1.2043100917e+00
1.2043088580e+00
1.2043076387e+00
1.2043064355e+00
1.2043052500e+00
1.2043040833e+00
1.2043029370e+00
1.2043018132e+00
1.2043007147e+00
1.2042996453e+00
1.2042986099e+00
1.2042976141e+00
1.2042966645e+00
1.2042957682e+00
1.2042949327e+00
1.2042941657e+00
1.2042934746e+00
1.2042928667e+00
1.2042923484e+00
1.2042919253e+00
1.2042916021e+00
1.2042913821e+00
1.2042912671e+00
1.2042912576e+00
1.2042913526e+00
1.2042915492e+00
1.2042918430e+00
1.2042922282e+00
1.2042926972e+00
1.2042932414e+00
1.2042938513e+00
1.2042945170e+00
1.2042952295e+00
1.2042959819e+00
1.2042908711e+00
1.2012620398e+00
1.2012778969e+00
1.2013019668e+00
1.2013379347e+00
1.2013853704e+00
1.2014437113e+00
1.2015122770e+00
1.2015902785e+00
1.2016768376e+00
1.2017709988e+00
1.2018717523e+00
1.2019780461e+00
1.2020888103e+00
1.2022029688e+00
1.2023194626e+00
1.2024372593e+00
1.2025553737e+00
1.2026728748e+00
1.2027889022e+00
1.2029026693e+00
1.2030134753e+00
1.2031207045e+00
1.2032238338e+00
1.2033224283e+00
1.2034161442e+00
1.2035047219e+00
1.2035879850e+00
1.2036658318e+00
1.2037382312e+00
1.2038052133e+00
1.2038668641e+00
1.2039233156e+00
1.2039747402e+00
1.2040213416e+00
1.2040633493e+00
1.2041010107e+00
1.2041345868e+00
1.2041643454e+00
1.2041905579e+00
1.2042134947e+00
1.2042334226e+00
1.2042506015e+00
1.2042652830e+00
1.2042777084e+00
1.2042881078e+00
1.2042966990e+00
1.2043036872e+00
1.2043092641e+00
1.2043136086e+00
1.2043168853e+00
1.2043192463e+00
1.2043208295e+00
1.2043217605e+00
1.2043221513e+00
1.2043221019e+00
1.2043216998e+00
1.2043210217e+00
1.2043201326e+00
1.2043190878e+00
1.2043179330e+00
1.2043167055e+00
1.2043154348e+00
1.2043141438e+00
1.2043128495e+00
1.2043115644e+00
1.2043102967e+00
1.2043090521e+00
1.2043078336e+00
1.2043066434e+00
1.2043054823e+00
1.2043043513e+00
1.2043032514e+00
1.2043021843e+00
1.2043011522e+00
1.2043001585e+00
1.2042992073e+00
1.2042983037e+00
1.2042974535e+00
1.2042966632e+00
1.2042959393e+00
1.2042952887e+00
1.2042947181e+00
1.2042942338e+00
1.2042938411e+00
1.2042935449e+00
1.2042933486e+00
1.2042932545e+00
1.2042932635e+00
1.2042933750e+00
1.2042935870e+00
1.2042938959e+00
1.2042942965e+00
1.2042947824e+00
1.2042953462e+00
1.2042959792e+00
1.2042966727e+00
1.2042974180e+00
1.2042982076e+00
1.2042990360e+00
1.2042950137e+00
1.2013947234e+00
1.2014099774e+00
1.2014329884e+00
1.2014673857e+00
1.2015127556e+00
1.2015685616e+00
1.2016341503e+00
1.2017087690e+00
1.2017915750e+00
1.2018816570e+00
1.2019780461e+00
1.2020797392e+00
1.2021857101e+00
1.2022949328e+00
1.2024063915e+00
1.2025191023e+00
1.2026321203e+00
1.2027445584e+00
1.2028555913e+00
1.2029644698e+00
1.2030705216e+00
1.2031731606e+00
1.2032718846e+00
1.2033662799e+00
1.2034560160e+00
1.2035408461e+00
1.2036205999e+00
1.2036951807e+00
1.2037645570e+00
1.2038287575e+00
1.2038878621e+00
1.2039419964e+00
1.2039913226e+00
1.2040360341e+00
1.2040763475e+00
1.2041124977e+00
1.2041447311e+00
1.2041733019e+00
1.2041984670e+00
1.2042204831e+00
1.2042396031e+00
1.2042560742e+00
1.2042701356e+00
1.2042820176e+00
1.2042919397e+00
1.2043001107e+00
1.2043067272e+00
1.2043119743e+00
1.2043160239e+00
1.2043190364e+00
1.2043211587e+00
1.2043225261e+00
1.2043232606e+00
1.2043234729e+00
1.2043232609e+00
1.2043227116e+00
1.2043219001e+00
1.2043208917e+00
1.2043197410e+00
1.2043184938e+00
1.2043171870e+00
1.2043158504e+00
1.2043145065e+00
1.2043131727e+00
1.2043118608e+00
1.2043105794e+00
1.2043093335e+00
1.2043081262e+00
1.2043069590e+00
1.2043058326e+00
1.2043047473e+00
1.2043037037e+00