# vtk DataFile Version 2.0
Blank
ASCII
DATASET STRUCTURED_GRID
DIMENSIONS 101 101 2
POINTS 20402 float
0.0000000000e+00 0.0000000000e+00 0.0000000000e+00
1.0000000000e-02 0.0000000000e+00 0.0000000000e+00
2.0000000000e-02 0.0000000000e+00 0.0000000000e+00
3.0000000000e-02 0.0000000000e+00 0.0000000000e+00
4.0000000000e-02 0.0000000000e+00 0.0000000000e+00
5.0000000000e-02 0.0000000000e+00 0.0000000000e+00
6.0000000000e-02 0.0000000000e+00 0.0000000000e+00
7.0000000000e-02 0.0000000000e+00 0.0000000000e+00
8.0000000000e-02 0.0000000000e+00 0.0000000000e+00
9.0000000000e-02 0.0000000000e+00 0.0000000000e+00
1.0000000000e-01 0.0000000000e+00 0.0000000000e+00
1.1000000000e-01 0.0000000000e+00 0.0000000000e+00
1.2000000000e-01 0.0000000000e+00 0.0000000000e+00
1.3000000000e-01 0.0000000000e+00 0.0000000000e+00
1.4000000000e-01 0.0000000000e+00 0.0000000000e+00
1.5000000000e-01 0.0000000000e+00 0.0000000000e+00
1.6000000000e-01 0.0000000000e+00 0.0000000000e+00
1.7000000000e-01 0.0000000000e+00 0.0000000000e+00
1.8000000000e-01 0.0000000000e+00 0.0000000000e+00
1.9000000000e-01 0.0000000000e+00 0.0000000000e+00
2.0000000000e-01 0.0000000000e+00 0.0000000000e+00
2.1000000000e-01 0.0000000000e+00 0.0000000000e+00
2.2000000000e-01 0.0000000000e+00 0.0000000000e+00
2.3000000000e-01 0.0000000000e+00 0.0000000000e+00
2.4000000000e-01 0.0000000000e+00 0.0000000000e+00
2.5000000000e-01 0.0000000000e+00 0.0000000000e+00
2.6000000000e-01 0.0000000000e+00 0.0000000000e+00
2.7000000000e-01 0.0000000000e+00 0.0000000000e+00
2.8000000000e-01 0.0000000000e+00 0.0000000000e+00
2.9000000000e-01 0.0000000000e+00 0.0000000000e+00
3.0000000000e-01 0.0000000000e+00 0.0000000000e+00
3.1000000000e-01 0.0000000000e+00 0.0000000000e+00
3.2000000000e-01 0.0000000000e+00 0.0000000000e+00
3.3000000000e-01 0.0000000000e+00 0.0000000000e+00
3.4000000000e-01 0.0000000000e+00 0.0000000000e+00
3.5000000000e-01 0.0000000000e+00 0.0000000000e+00
3.6000000000e-01 0.0000000000e+00 0.0000000000e+00
3.7000000000e-01 0.0000000000e+00 0.0000000000e+00
3.8000000000e-01 0.0000000000e+00 0.0000000000e+00
3.9000000000e-01 0.0000000000e+00 0.0000000000e+00
4.0000000000e-01 0.0000000000e+00 0.0000000000e+00
4.1000000000e-01 0.0000000000e+00 0.0000000000e+00
4.2000000000e-01 0.0000000000e+00 0.0000000000e+00
4.3000000000e-01 0.0000000000e+00 0.0000000000e+00
4.4000000000e-01 0.0000000000e+00 0.0000000000e+00
4.5000000000e-01 0.0000000000e+00 0.0000000000e+00
4.6000000000e-01 0.0000000000e+00 0.0000000000e+00
4.7000000000e-01 0.0000000000e+00 0.0000000000e+00
4.8000000000e-01 0.0000000000e+00 0.0000000000e+00
4.9000000000e-01 0.0000000000e+00 0.0000000000e+00
5.0000000000e-01 0.0000000000e+00 0.0000000000e+00
5.1000000000e-01 0.0000000000e+00 0.0000000000e+00
5.2000000000e-01 0.0000000000e+00 0.0000000000e+00
5.3000000000e-01 0.0000000000e+00 0.0000000000e+00
5.4000000000e-01 0.0000000000e+00 0.0000000000e+00
5.5000000000e-01 0.0000000000e+00 0.0000000000e+00
5.6000000000e-01 0.0000000000e+00 0.0000000000e+00
5.7000000000e-01 0.0000000000e+00 0.0000000000e+00
5.8000000000e-01 0.0000000000e+00 0.0000000000e+00
5.9000000000e-01 0.0000000000e+00 0.0000000000e+00
6.0000000000e-01 0.0000000000e+00 0.0000000000e+00
6.1000000000e-01 0.0000000000e+00 0.0000000000e+00
6.2000000000e-01 0.0000000000e+00 0.0000000000e+00
6.3000000000e-01 0.0000000000e+00 0.0000000000e+00
6.4000000000e-01 0.0000000000e+00 0.0000000000e+00
6.5000000000e-01 0.0000000000e+00 0.0000000000e+00
6.6000000000e-01 0.0000000000e+00 0.0000000000e+00
6.7000000000e-01 0.0000000000e+00 0.0000000000e+00
6.8000000000e-01 0.0000000000e+00 0.0000000000e+00
6.9000000000e-01 0.0000000000e+00 0.0000000000e+00
7.0000000000e-01 0.0000000000e+00 0.0000000000e+00
7.1000000000e-01 0.0000000000e+00 0.0000000000e+00
7.2000000000e-01 0.0000000000e+00 0.0000000000e+00
7.3000000000e-01 0.0000000000e+00 0.0000000000e+00
7.4000000000e-01 0.0000000000e+00 0.0000000000e+00
7.5000000000e-01 0.0000000000e+00 0.0000000000e+00
7.6000000000e-01 0.0000000000e+00 0.0000000000e+00
7.7000000000e-01 0.0000000000e+00 0.0000000000e+00
7.8000000000e-01 0.0000000000e+00 0.0000000000e+00
7.9000000000e-01 0.0000000000e+00 0.0000000000e+00
8.0000000000e-01 0.0000000000e+00 0.0000000000e+00
8.1000000000e-01 0.0000000000e+00 0.0000000000e+00
8.2000000000e-01 0.0000000000e+00 0.0000000000e+00
8.3000000000e-01 0.0000000000e+00 0.0000000000e+00
8.4000000000e-01 0.0000000000e+00 0.0000000000e+00
8.5000000000e-01 0.0000000000e+00 0.0000000000e+00
8.6000000000e-01 0.0000000000e+00 0.0000000000e+00
8.7000000000e-01 0.0000000000e+00 0.0000000000e+00
8.8000000000e-01 0.0000000000e+00 0.0000000000e+00
8.9000000000e-01 0.0000000000e+00 0.0000000000e+00
9.0000000000e-01 0.0000000000e+00 0.0000000000e+00
9.1000000000e-01 0.0000000000e+00 0.0000000000e+00
9.2000000000e-01 0.0000000000e+00 0.0000000000e+00
9.3000000000e-01 0.0000000000e+00 0.0000000000e+00
9.4000000000e-01 0.0000000000e+00 0.0000000000e+00
9.5000000000e-01 0.0000000000e+00 0.0000000000e+00
9.6000000000e-01 0.0000000000e+00 0.0000000000e+00
9.7000000000e-01 0.0000000000e+00 0.0000000000e+00
9.8000000000e-01 0.0000000000e+00 0.0000000000e+00
9.9000000000e-01 0.0000000000e+00 0.0000000000e+00
1.0000000000e+00 0.0000000000e+00 0.0000000000e+00
0.0000000000e+00 1.0000000000e-02 0.0000000000e+00
1.0000000000e-02 1.0000000000e-02 0.0000000000e+00
2.0000000000e-02 1.0000000000e-02 0.0000000000e+00
3.0000000000e-02 1.0000000000e-02 0.0000000000e+00
4.0000000000e-02 1.0000000000e-02 0.0000000000e+00
5.0000000000e-02 1.0000000000e-02 0.0000000000e+00
6.0000000000e-02 1.0000000000e-02 0.0000000000e+00
7.0000000000e-02 1.0000000000e-02 0.0000000000e+00
8.0000000000e-02 1.0000000000e-02 0.0000000000e+00
9.0000000000e-02 1.0000000000e-02 0.0000000000e+00
1.0000000000e-01 1.0000000000e-02 0.0000000000e+00
1.1000000000e-01 1.0000000000e-02 0.0000000000e+00
1.2000000000e-01 1.0000000000e-02 0.0000000000e+00
1.3000000000e-01 1.0000000000e-02 0.0000000000e+00
1.4000000000e-01 1.0000000000e-02 0.0000000000e+00
1.5000000000e-01 1.0000000000e-02 0.0000000000e+00
1.6000000000e-01 1.0000000000e-02 0.0000000000e+00
1.7000000000e-01 1.0000000000e-02 0.0000000000e+00
1.8000000000e-01 1.0000000000e-02 0.0000000000e+00
1.9000000000e-01 1.0000000000e-02 0.0000000000e+00
2.0000000000e-01 1.0000000000e-02 0.0000000000e+00
2.1000000000e-01 1.0000000000e-02 0.0000000000e+00
2.2000000000e-01 1.0000000000e-02 0.0000000000e+00
2.3000000000e-01 1.0000000000e-02 0.0000000000e+00
2.4000000000e-01 1.0000000000e-02 0.0000000000e+00
2.5000000000e-01 1.0000000000e-02 0.0000000000e+00
2.6000000000e-01 1.0000000000e-02 0.0000000000e+00
2.7000000000e-01 1.0000000000e-02 0.0000000000e+00
2.8000000000e-01 1.0000000000e-02 0.0000000000e+00
2.9000000000e-01 1.0000000000e-02 0.0000000000e+00
3.0000000000e-01 1.0000000000e-02 0.0000000000e+00
3.1000000000e-01 1.0000000000e-02 0.0000000000e+00
3.2000000000e-01 1.0000000000e-02 0.0000000000e+00
3.3000000000e-01 1.0000000000e-02 0.0000000000e+00
3.4000000000e-01 1.0000000000e-02 0.0000000000e+00
3.5000000000e-01 1.0000000000e-02 0.0000000000e+00
3.6000000000e-01 1.0000000000e-02 0.0000000000e+00
3.7000000000e-01 1.0000000000e-02 0.0000000000e+00
3.8000000000e-01 1.0000000000e-02 0.0000000000e+00
3.9000000000e-01 1.0000000000e-02 0.0000000000e+00
4.0000000000e-01 1.0000000000e-02 0.0000000000e+00
4.1000000000e-01 1.0000000000e-02 0.0000000000e+00
4.2000000000e-01 1.0000000000e-02 0.0000000000e+00
4.3000000000e-01 1.0000000000e-02 0.0000000000e+00
4.4000000000e-01 1.0000000000e-02 0.0000000000e+00
4.5000000000e-01 1.0000000000e-02 0.0000000000e+00
4.6000000000e-01 1.0000000000e-02 0.0000000000e+00
4.7000000000e-01 1.0000000000e-02 0.0000000000e+00
4.8000000000e-01 1.0000000000e-02 0.0000000000e+00
4.9000000000e-01 1.0000000000e-02 0.0000000000e+00
5.0000000000e-01 1.0000000000e-02 0.0000000000e+00
5.1000000000e-01 1.0000000000e-02 0.0000000000e+00
5.2000000000e-01 1.0000000000e-02 0.0000000000e+00
5.3000000000e-01 1.0000000000e-02 0.0000000000e+00
5.4000000000e-01 1.0000000000e-02 0.0000000000e+00
5.5000000000e-01 1.0000000000e-02 0.0000000000e+00
5.6000000000e-01 1.0000000000e-02 0.0000000000e+00
5.7000000000e-01 1.0000000000e-02 0.0000000000e+00
5.8000000000e-01 1.0000000000e-02 0.0000000000e+00
5.9000000000e-01 1.0000000000e-02 0.0000000000e+00
6.0000000000e-01 1.0000000000e-02 0.0000000000e+00
6.1000000000e-01 1.0000000000e-02 0.0000000000e+00
6.2000000000e-01 1.0000000000e-02 0.0000000000e+00
6.3000000000e-01 1.0000000000e-02 0.0000000000e+00
6.4000000000e-01 1.0000000000e-02 0.0000000000e+00
6.5000000000e-01 1.0000000000e-02 0.0000000000e+00
6.6000000000e-01 1.0000000000e-02 0.0000000000e+00
6.7000000000e-01 1.0000000000e-02 0.0000000000e+00
6.8000000000e-01 1.0000000000e-02 0.0000000000e+00
6.9000000000e-01 1.0000000000e-02 0.0000000000e+00
7.0000000000e-01 1.0000000000e-02 0.0000000000e+00
7.1000000000e-01 1.0000000000e-02 0.0000000000e+00
7.2000000000e-01 1.0000000000e-02 0.0000000000e+00
7.3000000000e-01 1.0000000000e-02 0.0000000000e+00
7.4000000000e-01 1.0000000000e-02 0.0000000000e+00
7.5000000000e-01 1.0000000000e-02 0.0000000000e+00
7.6000000000e-01 1.0000000000e-02 0.0000000000e+00
7.7000000000e-01 1.0000000000e-02 0.0000000000e+00
7.8000000000e-01 1.0000000000e-02 0.0000000000e+00
7.9000000000e-01 1.0000000000e-02 0.0000000000e+00
8.0000000000e-01 1.0000000000e-02 0.0000000000e+00
8.1000000000e-01 1.0000000000e-02 0.0000000000e+00
8.2000000000e-01 1.0000000000e-02 0.0000000000e+00
8.3000000000e-01 1.0000000000e-02 0.0000000000e+00
8.4000000000e-01 1.0000000000e-02 0.0000000000e+00
8.5000000000e-01 1.0000000000e-02 0.0000000000e+00
8.6000000000e-01 1.0000000000e-02 0.0000000000e+00
8.7000000000e-01 1.0000000000e-02 0.0000000000e+00
8.8000000000e-01 1.0000000000e-02 0.0000000000e+00
8.9000000000e-01 1.0000000000e-02 0.0000000000e+00
9.0000000000e-01 1.0000000000e-02 0.0000000000e+00
9.1000000000e-01 1.0000000000e-02 0.0000000000e+00
9.2000000000e-01 1.0000000000e-02 0.0000000000e+00
[...]
CELL_DATA 10000

SCALARS massDensity float
LOOKUP_TABLE default
1.2009438170e+00
1.2009572524e+00
1.2009820749e+00
1.2010186790e+00
1.2010666603e+00
1.2011255026e+00
1.2011945862e+00
1.2012731963e+00
1.2013605348e+00
1.2014557326e+00
1.2015578643e+00
1.2016659620e+00
1.2017790310e+00
1.2018960641e+00
1.2020160572e+00
1.2021380220e+00
1.2022610001e+00
1.2023840741e+00
1.2025063789e+00
1.2026271095e+00
1.2027455297e+00
1.2028609770e+00
1.2029728671e+00
1.2030806957e+00
1.2031840406e+00
1.2032825597e+00
1.2033759903e+00
1.2034641449e+00
1.2035469081e+00
1.2036242309e+00
1.2036961254e+00
1.2037626583e+00
1.2038239453e+00
1.2038801431e+00
1.2039314443e+00
1.2039780697e+00
1.2040202628e+00
1.2040582835e+00
1.2040924029e+00
1.2041228980e+00
1.2041500476e+00
1.2041741277e+00
1.2041954086e+00
1.2042141519e+00
1.2042306080e+00
1.2042450140e+00
1.2042575928e+00
1.2042685516e+00
1.2042780813e+00
1.2042863563e+00
1.2042935347e+00
1.2042997578e+00
1.2043051515e+00
1.2043098261e+00
1.2043138776e+00
1.2043173885e+00
1.2043204287e+00
1.2043230568e+00
1.2043253211e+00
1.2043272608e+00
1.2043289072e+00
1.2043302848e+00
1.2043314128e+00
1.2043323058e+00
1.2043329752e+00
1.2043334298e+00
1.2043336772e+00
1.2043337241e+00
1.2043335773e+00
1.2043332443e+00
1.2043327332e+00
1.2043320539e+00
1.2043312173e+00
1.2043302362e+00
1.2043291247e+00
1.2043278982e+00
1.2043265735e+00
1.2043251678e+00
1.2043236992e+00
1.2043221860e+00
1.2043206462e+00
1.2043190975e+00
1.2043175569e+00
1.2043160404e+00
1.2043145628e+00
1.2043131376e+00
1.2043117769e+00
1.2043104912e+00
1.2043092892e+00
1.2043081784e+00
1.2043071652e+00
1.2043062550e+00
1.2043054539e+00
1.2043047696e+00
1.2043042138e+00
1.2043038046e+00
1.2043035695e+00
1.2043035477e+00
1.2043037880e+00
1.2043007349e+00
1.2009572524e+00
1.2009705311e+00
1.2009951652e+00
1.2010314774e+00
1.2010790850e+00
1.2011374876e+00
1.2012060762e+00
1.2012841457e+00
1.2013709055e+00
1.2014654946e+00
1.2015669940e+00
1.2016744431e+00
1.2017868530e+00
1.2019032234e+00
1.2020225548e+00
1.2021438652e+00
1.2022662002e+00
1.2023886474e+00
1.2025103447e+00
1.2026304912e+00
1.2027483527e+00
1.2028632692e+00
1.2029746576e+00
1.2030820153e+00
1.2031849200e+00
1.2032830304e+00
1.2033760829e+00
1.2034638900e+00
1.2035463347e+00
1.2036233671e+00
1.2036949974e+00
1.2037612911e+00
1.2038223611e+00
1.2038783628e+00
1.2039294860e+00
1.2039759497e+00
1.2040179947e+00
1.2040558790e+00
1.2040898711e+00
1.2041202464e+00
1.2041472810e+00
1.2041712495e+00
1.2041924204e+00
1.2042110538e+00
1.2042273988e+00
1.2042416917e+00
1.2042541546e+00
1.2042649944e+00
1.2042744021e+00
1.2042825526e+00
1.2042896045e+00
1.2042957008e+00
1.2043009685e+00
1.2043055201e+00
1.2043094539e+00
1.2043128549e+00
1.2043157960e+00
1.2043183388e+00
1.2043205346e+00
1.2043224258e+00
1.2043240467e+00
1.2043254248e+00
1.2043265819e+00
1.2043275347e+00
1.2043282963e+00
1.2043288769e+00
1.2043292845e+00
1.2043295260e+00
1.2043296074e+00
1.2043295347e+00
1.2043293144e+00
1.2043289535e+00
1.2043284600e+00
1.2043278431e+00
1.2043271131e+00
1.2043262814e+00
1.2043253604e+00
1.2043243633e+00
1.2043233041e+00
1.2043221970e+00
1.2043210565e+00
1.2043198968e+00
1.2043187319e+00
1.2043175751e+00
1.2043164390e+00
1.2043153349e+00
1.2043142733e+00
1.2043132634e+00
1.2043123132e+00
1.2043114292e+00
1.2043106173e+00
1.2043098822e+00
1.2043092286e+00
1.2043086612e+00
1.2043081859e+00
1.2043078097e+00
1.2043075407e+00
1.2043073861e+00
1.2043073454e+00
1.2043036798e+00
1.2009820749e+00
1.2009951652e+00
1.2010196570e+00
1.2010557215e+00
1.2011029840e+00
1.2011609506e+00
1.2012290203e+00
1.2013064940e+00
1.2013925896e+00
1.2014864525e+00
1.2015871724e+00
1.2016937956e+00
1.2018053423e+00
1.2019208189e+00
1.2020392353e+00
1.2021596157e+00
1.2022810146e+00
1.2024025253e+00
1.2025232934e+00
1.2026425231e+00
1.2027594868e+00
1.2028735285e+00
1.2029840702e+00
1.2030906122e+00
1.2031927362e+00
1.2032901023e+00
1.2033824496e+00
1.2034695910e+00
1.2035514112e+00
1.2036278596e+00
1.2036989470e+00
1.2037647373e+00
1.2038253434e+00
1.2038809185e+00
1.2039316517e+00
1.2039777596e+00
1.2040194818e+00
1.2040570739e+00
1.2040908029e+00
1.2041209416e+00
1.2041477649e+00
1.2041715451e+00
1.2041925492e+00
1.2042110353e+00
1.2042272513e+00
1.2042414320e+00
1.2042537983e+00
1.2042645560e+00
1.2042738950e+00
1.2042819895e+00
1.2042889975e+00
1.2042950610e+00
1.2043003069e+00
1.2043048470e+00
1.2043087794e+00
1.2043121887e+00
1.2043151473e+00
1.2043177165e+00
1.2043199473e+00
1.2043218815e+00
1.2043235530e+00
1.2043249887e+00
1.2043262095e+00
1.2043272314e+00
1.2043280666e+00
1.2043287241e+00
1.2043292111e+00
1.2043295331e+00
1.2043296950e+00
1.2043297015e+00
1.2043295578e+00
1.2043292699e+00
1.2043288446e+00
1.2043282902e+00
1.2043276160e+00
1.2043268328e+00
1.2043259526e+00
1.2043249883e+00
1.2043239536e+00
1.2043228630e+00
1.2043217311e+00
1.2043205726e+00
1.2043194021e+00
1.2043182334e+00
1.2043170798e+00
1.2043159535e+00
1.2043148657e+00
1.2043138262e+00
1.2043128436e+00
1.2043119252e+00
1.2043110771e+00
1.2043103042e+00
1.2043096108e+00
1.2043090004e+00
1.2043084759e+00
1.2043080396e+00
1.2043076913e+00
1.2043074259e+00
1.2043072268e+00
1.2043032247e+00
1.2010186790e+00
1.2010314774e+00
1.2010557215e+00
1.2010914011e+00
1.2011381458e+00
1.2011954694e+00
1.2012627779e+00
1.2013393826e+00
1.2014245095e+00
1.2015173159e+00
1.2016169011e+00
1.2017223237e+00
1.2018326140e+00
1.2019467915e+00
1.2020638758e+00
1.2021829040e+00
1.2023029395e+00
1.2024230877e+00
1.2025425022e+00
1.2026603976e+00
1.2027760529e+00
1.2028888208e+00
1.2029981285e+00
1.2031034828e+00
1.2032044687e+00
1.2033007512e+00
1.2033920710e+00
1.2034782440e+00
1.2035591548e+00
1.2036347543e+00
1.2037050519e+00
1.2037701116e+00
1.2038300441e+00
1.2038850015e+00
1.2039351700e+00
1.2039807642e+00
1.2040220206e+00
1.2040591924e+00
1.2040925433e+00
1.2041223435e+00
1.2041488647e+00
1.2041723767e+00
1.2041931434e+00
1.2042114208e+00
1.2042274539e+00
1.2042414757e+00
1.2042537048e+00
1.2042643453e+00
1.2042735855e+00
1.2042815981e+00
1.2042885397e+00
1.2042945514e+00
1.2042997589e+00
1.2043042735e+00
1.2043081922e+00
1.2043115991e+00
1.2043145661e+00
1.2043171537e+00
1.2043194123e+00
1.2043213833e+00
1.2043230997e+00
1.2043245877e+00
1.2043258674e+00
1.2043269540e+00
1.2043278587e+00
1.2043285894e+00
1.2043291521e+00
1.2043295511e+00
1.2043297901e+00
1.2043298727e+00
1.2043298028e+00
1.2043295850e+00
1.2043292253e+00
1.2043287309e+00
1.2043281103e+00
1.2043273736e+00
1.2043265321e+00
1.2043255986e+00
1.2043245867e+00
1.2043235109e+00
1.2043223860e+00
1.2043212271e+00
1.2043200492e+00
1.2043188670e+00
1.2043176942e+00
1.2043165439e+00
1.2043154279e+00
1.2043143567e+00
1.2043133396e+00
1.2043123843e+00
1.2043114973e+00
1.2043106835e+00
1.2043099469e+00
1.2043092898e+00
1.2043087133e+00
1.2043082165e+00
1.2043077951e+00
1.2043074395e+00
1.2043071301e+00
1.2043029129e+00
1.2010666603e+00
1.2010790850e+00
1.2011029840e+00
1.2011381458e+00
1.2011842057e+00
1.2012406841e+00
1.2013069975e+00
1.2013824668e+00
1.2014663315e+00
1.2015577605e+00
1.2016558683e+00
1.2017597266e+00
1.2018683820e+00
1.2019808669e+00
1.2020962176e+00
1.2022134838e+00
1.2023317447e+00
1.2024501172e+00
1.2025677693e+00
1.2026839255e+00
1.2027978770e+00
1.2029089844e+00
1.2030166847e+00
1.2031204905e+00
1.2032199940e+00
1.2033148639e+00
1.2034048455e+00
1.2034897561e+00
1.2035694828e+00
1.2036439762e+00
1.2037132461e+00
1.2037773546e+00
1.2038364112e+00
1.2038905651e+00
1.2039400001e+00
1.2039849272e+00
1.2040255797e+00
1.2040622066e+00
1.2040950683e+00
1.2041244308e+00
1.2041505621e+00
1.2041737280e+00
1.2041941891e+00
1.2042121977e+00
1.2042279959e+00
1.2042418131e+00
1.2042538657e+00
1.2042643549e+00
1.2042734669e+00
1.2042813722e+00
1.2042882257e+00
1.2042941669e+00
1.2042993202e+00
1.2043037954e+00
1.2043076886e+00
1.2043110829e+00
1.2043140493e+00
1.2043166475e+00
1.2043189272e+00
1.2043209287e+00
1.2043226846e+00
1.2043242200e+00
1.2043255541e+00
1.2043267013e+00
1.2043276714e+00
1.2043284716e+00
1.2043291065e+00
1.2043295793e+00
1.2043298924e+00
1.2043300480e+00
1.2043300489e+00
1.2043298987e+00
1.2043296021e+00
1.2043291652e+00
1.2043285959e+00
1.2043279035e+00
1.2043270988e+00
1.2043261943e+00
1.2043252034e+00
1.2043241406e+00
1.2043230209e+00
1.2043218600e+00
1.2043206733e+00
1.2043194759e+00
1.2043182823e+00
1.2043171063e+00
1.2043159604e+00
1.2043148559e+00
1.2043138025e+00
1.2043128085e+00
1.2043118807e+00
1.2043110242e+00
1.2043102426e+00
1.2043095378e+00
1.2043089097e+00
1.2043083559e+00
1.2043078706e+00
1.2043074434e+00
1.2043070571e+00
1.2043026994e+00
1.2011255026e+00
1.2011374876e+00
1.2011609506e+00
1.2011954694e+00
1.2012406841e+00
1.2012961249e+00
1.2013612180e+00
1.2014352983e+00
1.2015176186e+00
1.2016073647e+00
1.2017036664e+00
1.2018056144e+00
1.2019122713e+00
1.2020226896e+00
1.2021359214e+00
1.2022510360e+00
1.2023671278e+00
1.2024833318e+00
1.2025988295e+00
1.2027128612e+00
1.2028247296e+00
1.2029338085e+00
1.2030395435e+00
1.2031414574e+00
1.2032391485e+00
1.2033322923e+00
1.2034206376e+00
1.2035040059e+00
1.2035822851e+00
1.2036554273e+00
1.2037234410e+00
1.2037863879e+00
1.2038443745e+00
1.2038975477e+00
1.2039460872e+00
1.2039902006e+00
1.2040301164e+00
1.2040660796e+00
1.2040983452e+00
1.2041271750e+00
1.2041528319e+00
1.2041755774e+00
1.2041956672e+00
1.2042133496e+00
1.2042288624e+00
1.2042424316e+00
1.2042542696e+00
1.2042645748e+00
1.2042735303e+00
1.2042813040e+00
1.2042880486e+00
1.2042939014e+00
1.2042989849e+00
1.2043034076e+00
1.2043072639e+00
1.2043106358e+00
1.2043135931e+00
1.2043161945e+00
1.2043184887e+00
1.2043205151e+00
1.2043223052e+00
1.2043238833e+00
1.2043252676e+00
1.2043264713e+00
1.2043275033e+00
1.2043283696e+00
1.2043290734e+00
1.2043296168e+00
1.2043300009e+00
1.2043302268e+00
1.2043302958e+00
1.2043302105e+00
1.2043299744e+00
1.2043295928e+00
1.2043290725e+00
1.2043284223e+00
1.2043276524e+00
1.2043267749e+00
1.2043258032e+00
1.2043247517e+00
1.2043236358e+00
1.2043224713e+00
1.2043212741e+00
1.2043200601e+00
1.2043188443e+00
1.2043176412e+00
1.2043164640e+00
1.2043153247e+00
1.2043142337e+00
1.2043131997e+00
1.2043122300e+00
1.2043113299e+00
1.2043105029e+00
1.2043097509e+00
1.2043090732e+00
1.2043084672e+00
1.2043079270e+00
1.2043074431e+00
1.2043070017e+00
1.2043025480e+00
1.2011945862e+00
1.2012060762e+00
1.2012290203e+00
1.2012627779e+00
1.2013069975e+00
1.2013612180e+00
1.2014248794e+00
1.2014973301e+00
1.2015778410e+00
1.2016656145e+00
1.2017598015e+00
1.2018595110e+00
1.2019638285e+00
1.2020718253e+00
1.2021825768e+00
1.2022951705e+00
1.2024087230e+00
1.2025223861e+00
1.2026353614e+00
1.2027469038e+00
1.2028563331e+00
1.2029630348e+00
1.2030664682e+00
1.2031661650e+00
1.2032617332e+00
1.2033528541e+00
1.2034392830e+00
1.2035208436e+00
1.2035974273e+00
1.2036689859e+00
1.2037355286e+00
1.2037971143e+00
1.2038538480e+00
1.2039058723e+00
1.2039533637e+00
1.2039965244e+00
1.2040355784e+00
1.2040707648e+00
1.2041023336e+00
1.2041305406e+00
1.2041556434e+00
1.2041778976e+00
1.2041975541e+00
1.2042148557e+00
1.2042300356e+00
1.2042433151e+00
1.2042549028e+00
1.2042649927e+00
1.2042737649e+00
1.2042813840e+00
1.2042879998e+00
1.2042937471e+00
1.2042987464e+00
1.2043031040e+00
1.2043069127e+00
1.2043102530e+00
1.2043131931e+00
1.2043157907e+00
1.2043180933e+00
1.2043201391e+00
1.2043219587e+00
1.2043235751e+00
1.2043250056e+00
1.2043262621e+00
1.2043273526e+00
1.2043282816e+00
1.2043290513e+00
1.2043296624e+00
1.2043301147e+00
1.2043304081e+00
1.2043305427e+00
1.2043305198e+00
1.2043303419e+00
1.2043300132e+00
1.2043295397e+00
1.2043289296e+00
1.2043281925e+00
1.2043273402e+00
1.2043263859e+00
1.2043253441e+00
1.2043242303e+00
1.2043230607e+00
1.2043218516e+00
1.2043206196e+00
1.2043193803e+00
1.2043181489e+00
1.2043169392e+00
1.2043157641e+00
1.2043146344e+00
1.2043135597e+00
1.2043125475e+00
1.2043116036e+00
1.2043107316e+00
1.2043099336e+00
1.2043092092e+00
1.2043085557e+00
1.2043079681e+00
1.2043074384e+00
1.2043069561e+00
1.2043024326e+00
1.2012731963e+00
1.2012841457e+00
1.2013064940e+00
1.2013393826e+00
1.2013824668e+00
1.2014352983e+00
1.2014973301e+00
1.2015679287e+00
1.2016463821e+00
1.2017319150e+00
1.2018236983e+00
1.2019208660e+00
1.2020225249e+00
1.2021277724e+00
1.2022357053e+00
1.2023454367e+00
1.2024561035e+00
1.2025668815e+00
1.2026769901e+00
1.2027857056e+00
1.2028923626e+00
1.2029963644e+00
1.2030971818e+00
1.2031943600e+00
1.2032875153e+00
1.2033763381e+00
1.2034605883e+00
1.2035400953e+00
1.2036147516e+00
1.2036845111e+00
1.2037493814e+00
1.2038094208e+00
1.2038647303e+00
1.2039154497e+00
1.2039617498e+00
1.2040038286e+00
1.2040419035e+00
1.2040762081e+00
1.2041069857e+00
1.2041344859e+00
1.2041589597e+00
1.2041806569e+00
1.2041998218e+00
1.2042166917e+00
1.2042314941e+00
1.2042444453e+00
1.2042557487e+00
1.2042655945e+00
1.2042741582e+00
1.2042816011e+00
1.2042880695e+00
1.2042936956e+00
1.2042985970e+00
1.2043028778e+00
1.2043066289e+00
1.2043099288e+00
1.2043128444e+00
1.2043154318e+00
1.2043177370e+00
1.2043197973e+00
1.2043216418e+00
1.2043232925e+00
1.2043247655e+00
1.2043260715e+00
1.2043272172e+00
1.2043282060e+00
1.2043290387e+00
1.2043297148e+00
1.2043302327e+00
1.2043305910e+00
1.2043307887e+00
1.2043308258e+00
1.2043307037e+00
1.2043304257e+00
1.2043299970e+00
1.2043294248e+00
1.2043287186e+00
1.2043278897e+00
1.2043269510e+00
1.2043259172e+00
1.2043248040e+00
1.2043236278e+00
1.2043224056e+00
1.2043211543e+00
1.2043198904e+00
1.2043186296e+00
1.2043173866e+00
1.2043161748e+00
1.2043150059e+00
1.2043138900e+00
1.2043128351e+00
1.2043118476e+00
1.2043109316e+00
1.2043100892e+00
1.2043093207e+00
1.2043086240e+00
1.2043079950e+00
1.2043074275e+00
1.2043069133e+00
1.2043023342e+00
1.2013605348e+00
1.2013709055e+00
1.2013925896e+00
1.2014245095e+00
1.2014663315e+00
1.2015176186e+00
1.2015778410e+00
1.2016463821e+00
1.2017225524e+00
1.2018055975e+00
1.2018947144e+00
1.2019890603e+00
1.2020877704e+00
1.2021899661e+00
1.2022947727e+00
1.2024013269e+00
1.2025087929e+00
1.2026163681e+00
1.2027232968e+00
1.2028288739e+00
1.2029324555e+00
1.2030334597e+00
1.2031313747e+00
1.2032257565e+00
1.2033162342e+00
1.2034025052e+00
1.2034843376e+00
1.2035615641e+00
1.2036340812e+00
1.2037018428e+00
1.2037648569e+00
1.2038231790e+00
1.2038769078e+00
1.2039261780e+00
1.2039711562e+00
1.2040120336e+00
1.2040490220e+00
1.2040823477e+00
1.2041122475e+00
1.2041389634e+00
1.2041627398e+00
1.2041838189e+00
1.2042024388e+00
1.2042188300e+00
1.2042332139e+00
1.2042458009e+00
1.2042567893e+00
1.2042663640e+00
1.2042746962e+00
1.2042819429e+00
1.2042882470e+00
1.2042937371e+00
1.2042985281e+00
1.2043027214e+00
1.2043064057e+00
1.2043096574e+00
1.2043125416e+00
1.2043151128e+00
1.2043174155e+00
1.2043194857e+00
1.2043213511e+00
1.2043230325e+00
1.2043245446e+00
1.2043258970e+00
1.2043270951e+00
1.2043281409e+00
1.2043290339e+00
1.2043297724e+00
1.2043303535e+00
1.2043307744e+00
1.2043310328e+00
1.2043311275e+00
1.2043310590e+00
1.2043308296e+00
1.2043304435e+00
1.2043299074e+00
1.2043292301e+00
1.2043284227e+00
1.2043274981e+00
1.2043264707e+00
1.2043253566e+00
1.2043241725e+00
1.2043229359e+00
1.2043216642e+00
1.2043203746e+00
1.2043190836e+00
1.2043178065e+00
1.2043165575e+00
1.2043153490e+00
1.2043141917e+00
1.2043130944e+00
1.2043120638e+00
1.2043111046e+00
1.2043102197e+00
1.2043094097e+00
1.2043086733e+00
1.2043080075e+00
1.2043074075e+00
1.2043068672e+00
1.2043022395e+00
1.2014557326e+00
1.2014654946e+00
1.2014864525e+00
1.2015173159e+00
1.2015577605e+00
1.2016073647e+00
1.2016656145e+00
1.2017319150e+00
1.2018055975e+00
1.2018859342e+00
1.2019721462e+00
1.2020634206e+00
1.2021589185e+00
1.2022577923e+00
1.2023591934e+00
1.2024622892e+00
1.2025662686e+00
1.2026703573e+00
1.2027738220e+00
1.2028759825e+00
1.2029762135e+00
1.2030739540e+00
1.2031687065e+00
1.2032600434e+00
1.2033476034e+00
1.2034310954e+00
1.2035102930e+00
1.2035850356e+00
1.2036552214e+00
1.2037208066e+00
1.2037817977e+00
1.2038382490e+00
1.2038902550e+00
1.2039379465e+00
1.2039814838e+00
1.2040210525e+00
1.2040568569e+00
1.2040891164e+00
1.2041180597e+00
1.2041439215e+00
1.2041669380e+00
1.2041873443e+00
1.2042053705e+00
1.2042212405e+00
1.2042351687e+00
1.2042473593e+00
1.2042580045e+00
1.2042672838e+00
1.2042753635e+00
1.2042823962e+00
1.2042885204e+00
1.2042938613e+00
1.2042985305e+00
1.2043026267e+00
1.2043062358e+00
1.2043094323e+00
1.2043122790e+00
1.2043148287e+00
1.2043171243e+00
1.2043192003e+00
1.2043210830e+00
1.2043227917e+00
1.2043243400e+00
1.2043257360e+00
1.2043269838e+00
1.2043280841e+00
1.2043290352e+00
1.2043298337e+00
1.2043304756e+00
1.2043309568e+00
1.2043312737e+00
1.2043314240e+00
1.2043314070e+00
1.2043312239e+00
1.2043308785e+00
1.2043303765e+00
1.2043297264e+00
1.2043289388e+00
1.2043280264e+00
1.2043270040e+00
1.2043258876e+00
1.2043246943e+00
1.2043234422e+00
1.2043221491e+00
1.2043208330e+00
1.2043195110e+00
1.2043181993e+00
1.2043169127e+00
1.2043156644e+00
1.2043144658e+00
1.2043133263e+00
1.2043122534e+00
1.2043112523e+00
1.2043103264e+00
1.2043094771e+00
1.2043087039e+00
1.2043080046e+00
1.2043073759e+00
1.2043068131e+00
1.2043021392e+00
1.2015578643e+00
1.2015669940e+00
1.2015871724e+00
1.2016169011e+00
1.2016558683e+00
1.2017036664e+00
1.2017598015e+00
1.2018236983e+00
1.2018947144e+00
1.2019721462e+00
1.2020552453e+00
1.2021432258e+00
1.2022352816e+00
1.2023305931e+00
1.2024283451e+00
1.2025277322e+00
1.2026279751e+00
1.2027283250e+00
1.2028280772e+00
1.2029265734e+00
1.2030232131e+00
1.2031174531e+00
1.2032088157e+00
1.2032968863e+00
1.2033813183e+00
1.2034618290e+00
1.2035382015e+00
1.2036102791e+00
1.2036779648e+00
1.2037412148e+00
1.2038000362e+00
1.2038544801e+00
1.2039046382e+00
1.2039506355e+00
1.2039926274e+00
1.2040307917e+00
1.2040653260e+00
1.2040964414e+00
1.2041243588e+00
1.2041493041e+00
1.2041715057e+00
1.2041911901e+00
1.2042085799e+00
1.2042238908e+00
1.2042373304e+00
1.2042490957e+00
1.2042593728e+00
1.2042683353e+00
1.2042761440e+00
1.2042829465e+00
1.2042888772e+00
1.2042940573e+00
1.2042985948e+00
1.2043025852e+00
1.2043061120e+00
1.2043092468e+00
1.2043120506e+00
1.2043145742e+00
1.2043168587e+00
1.2043189369e+00
1.2043208336e+00
1.2043225669e+00
1.2043241487e+00
1.2043255858e+00
1.2043268810e+00
1.2043280336e+00
1.2043290404e+00
1.2043298968e+00
1.2043305974e+00
1.2043311368e+00
1.2043315101e+00
1.2043317139e+00
1.2043317464e+00
1.2043316078e+00
1.2043313010e+00
1.2043308313e+00
1.2043302065e+00
1.2043294370e+00
1.2043285355e+00
1.2043275165e+00
1.2043263965e+00
1.2043251929e+00
1.2043239241e+00
1.2043226088e+00
1.2043212654e+00
1.2043199119e+00
1.2043185652e+00
1.2043172408e+00
1.2043159527e+00
1.2043147131e+00
1.2043135320e+00
1.2043124174e+00
1.2043113755e+00
1.2043104102e+00
1.2043095234e+00
1.2043087156e+00
1.2043079855e+00
1.2043073306e+00
1.2043067476e+00
1.2043020268e+00
1.2016659620e+00
1.2016744431e+00
1.2016937956e+00
1.2017223237e+00
1.2017597266e+00
1.2018056144e+00
1.2018595110e+00
1.2019208660e+00
1.2019890603e+00
1.2020634206e+00
1.2021432258e+00
1.2022277237e+00
1.2023161373e+00
1.2024076825e+00
1.2025015733e+00
1.2025970390e+00
1.2026933283e+00
1.2027897246e+00
1.2028855482e+00
1.2029801694e+00
1.2030730086e+00
1.2031635463e+00
1.2032513210e+00
1.2033359365e+00
1.2034170576e+00
1.2034944142e+00
1.2035677961e+00
1.2036370539e+00
1.2037020927e+00
1.2037628715e+00
1.2038193956e+00
1.2038717148e+00
1.2039199160e+00
1.2039641203e+00
1.2040044754e+00
1.2040411531e+00
1.2040743425e+00
1.2041042467e+00
1.2041310777e+00
1.2041550530e+00
1.2041763917e+00
1.2041953121e+00
1.2042120279e+00
1.2042267472e+00
1.2042396694e+00
1.2042509847e+00
1.2042608720e+00
1.2042694990e+00
1.2042770205e+00
1.2042835792e+00
1.2042893046e+00
1.2042943137e+00
1.2042987108e+00
1.2043025882e+00
1.2043060262e+00
1.2043090941e+00
1.2043118505e+00
1.2043143439e+00
1.2043166138e+00
1.2043186912e+00
1.2043205993e+00
1.2043223546e+00
1.2043239676e+00
1.2043254437e+00
1.2043267842e+00
1.2043279870e+00
1.2043290476e+00
1.2043299600e+00
1.2043307174e+00
1.2043313130e+00
1.2043317408e+00
1.2043319961e+00