# vtk DataFile Version 2.0
Blank
ASCII
DATASET STRUCTURED_GRID
DIMENSIONS 101 101 2
POINTS 20402 float
0.0000000000e+00 0.0000000000e+00 0.0000000000e+00
1.0000000000e-02 0.0000000000e+00 0.0000000000e+00
2.0000000000e-02 0.0000000000e+00 0.0000000000e+00
3.0000000000e-02 0.0000000000e+00 0.0000000000e+00
4.0000000000e-02 0.0000000000e+00 0.0000000000e+00
5.0000000000e-02 0.0000000000e+00 0.0000000000e+00
6.0000000000e-02 0.0000000000e+00 0.0000000000e+00
7.0000000000e-02 0.0000000000e+00 0.0000000000e+00
8.0000000000e-02 0.0000000000e+00 0.0000000000e+00
9.0000000000e-02 0.0000000000e+00 0.0000000000e+00
1.0000000000e-01 0.0000000000e+00 0.0000000000e+00
1.1000000000e-01 0.0000000000e+00 0.0000000000e+00
1.2000000000e-01 0.0000000000e+00 0.0000000000e+00
1.3000000000e-01 0.0000000000e+00 0.0000000000e+00
1.4000000000e-01 0.0000000000e+00 0.0000000000e+00
1.5000000000e-01 0.0000000000e+00 0.0000000000e+00
1.6000000000e-01 0.0000000000e+00 0.0000000000e+00
1.7000000000e-01 0.0000000000e+00 0.0000000000e+00
1.8000000000e-01 0.0000000000e+00 0.0000000000e+00
1.9000000000e-01 0.0000000000e+00 0.0000000000e+00
2.0000000000e-01 0.0000000000e+00 0.0000000000e+00
2.1000000000e-01 0.0000000000e+00 0.0000000000e+00
2.2000000000e-01 0.0000000000e+00 0.0000000000e+00
2.3000000000e-01 0.0000000000e+00 0.0000000000e+00
2.4000000000e-01 0.0000000000e+00 0.0000000000e+00
2.5000000000e-01 0.0000000000e+00 0.0000000000e+00
2.6000000000e-01 0.0000000000e+00 0.0000000000e+00
2.7000000000e-01 0.0000000000e+00 0.0000000000e+00
2.8000000000e-01 0.0000000000e+00 0.0000000000e+00
2.9000000000e-01 0.0000000000e+00 0.0000000000e+00
3.0000000000e-01 0.0000000000e+00 0.0000000000e+00
3.1000000000e-01 0.0000000000e+00 0.0000000000e+00
3.2000000000e-01 0.0000000000e+00 0.0000000000e+00
3.3000000000e-01 0.0000000000e+00 0.0000000000e+00
3.4000000000e-01 0.0000000000e+00 0.0000000000e+00
3.5000000000e-01 0.0000000000e+00 0.0000000000e+00
3.6000000000e-01 0.0000000000e+00 0.0000000000e+00
3.7000000000e-01 0.0000000000e+00 0.0000000000e+00
3.8000000000e-01 0.0000000000e+00 0.0000000000e+00
3.9000000000e-01 0.0000000000e+00 0.0000000000e+00
4.0000000000e-01 0.0000000000e+00 0.0000000000e+00
4.1000000000e-01 0.0000000000e+00 0.0000000000e+00
4.2000000000e-01 0.0000000000e+00 0.0000000000e+00
4.3000000000e-01 0.0000000000e+00 0.0000000000e+00
4.4000000000e-01 0.0000000000e+00 0.0000000000e+00
4.5000000000e-01 0.0000000000e+00 0.0000000000e+00
4.6000000000e-01 0.0000000000e+00 0.0000000000e+00
4.7000000000e-01 0.0000000000e+00 0.0000000000e+00
4.8000000000e-01 0.0000000000e+00 0.0000000000e+00
4.9000000000e-01 0.0000000000e+00 0.0000000000e+00
5.0000000000e-01 0.0000000000e+00 0.0000000000e+00
5.1000000000e-01 0.0000000000e+00 0.0000000000e+00
5.2000000000e-01 0.0000000000e+00 0.0000000000e+00
5.3000000000e-01 0.0000000000e+00 0.0000000000e+00
5.4000000000e-01 0.0000000000e+00 0.0000000000e+00
5.5000000000e-01 0.0000000000e+00 0.0000000000e+00
5.6000000000e-01 0.0000000000e+00 0.0000000000e+00
5.7000000000e-01 0.0000000000e+00 0.0000000000e+00
5.8000000000e-01 0.0000000000e+00 0.0000000000e+00
5.9000000000e-01 0.0000000000e+00 0.0000000000e+00
6.0000000000e-01 0.0000000000e+00 0.0000000000e+00
6.1000000000e-01 0.0000000000e+00 0.0000000000e+00
6.2000000000e-01 0.0000000000e+00 0.0000000000e+00
6.3000000000e-01 0.0000000000e+00 0.0000000000e+00
6.4000000000e-01 0.0000000000e+00 0.0000000000e+00
6.5000000000e-01 0.0000000000e+00 0.0000000000e+00
6.6000000000e-01 0.0000000000e+00 0.0000000000e+00
6.7000000000e-01 0.0000000000e+00 0.0000000000e+00
6.8000000000e-01 0.0000000000e+00 0.0000000000e+00
6.9000000000e-01 0.0000000000e+00 0.0000000000e+00
7.0000000000e-01 0.0000000000e+00 0.0000000000e+00
7.1000000000e-01 0.0000000000e+00 0.0000000000e+00
7.2000000000e-01 0.0000000000e+00 0.0000000000e+00
7.3000000000e-01 0.0000000000e+00 0.0000000000e+00
7.4000000000e-01 0.0000000000e+00 0.0000000000e+00
7.5000000000e-01 0.0000000000e+00 0.0000000000e+00
7.6000000000e-01 0.0000000000e+00 0.0000000000e+00
7.7000000000e-01 0.0000000000e+00 0.0000000000e+00
7.8000000000e-01 0.0000000000e+00 0.0000000000e+00
7.9000000000e-01 0.0000000000e+00 0.0000000000e+00
8.0000000000e-01 0.0000000000e+00 0.0000000000e+00
8.1000000000e-01 0.0000000000e+00 0.0000000000e+00
8.2000000000e-01 0.0000000000e+00 0.0000000000e+00
8.3000000000e-01 0.0000000000e+00 0.0000000000e+00
8.4000000000e-01 0.0000000000e+00 0.0000000000e+00
8.5000000000e-01 0.0000000000e+00 0.0000000000e+00
8.6000000000e-01 0.0000000000e+00 0.0000000000e+00
8.7000000000e-01 0.0000000000e+00 0.0000000000e+00
8.8000000000e-01 0.0000000000e+00 0.0000000000e+00
8.9000000000e-01 0.0000000000e+00 0.0000000000e+00
9.0000000000e-01 0.0000000000e+00 0.0000000000e+00
9.1000000000e-01 0.0000000000e+00 0.0000000000e+00
9.2000000000e-01 0.0000000000e+00 0.0000000000e+00
9.3000000000e-01 0.0000000000e+00 0.0000000000e+00
9.4000000000e-01 0.0000000000e+00 0.0000000000e+00
9.5000000000e-01 0.0000000000e+00 0.0000000000e+00
9.6000000000e-01 0.0000000000e+00 0.0000000000e+00
9.7000000000e-01 0.0000000000e+00 0.0000000000e+00
9.8000000000e-01 0.0000000000e+00 0.0000000000e+00
9.9000000000e-01 0.0000000000e+00 0.0000000000e+00
1.0000000000e+00 0.0000000000e+00 0.0000000000e+00
0.0000000000e+00 1.0000000000e-02 0.0000000000e+00
1.0000000000e-02 1.0000000000e-02 0.0000000000e+00
2.0000000000e-02 1.0000000000e-02 0.0000000000e+00
3.0000000000e-02 1.0000000000e-02 0.0000000000e+00
4.0000000000e-02 1.0000000000e-02 0.0000000000e+00
5.0000000000e-02 1.0000000000e-02 0.0000000000e+00
6.0000000000e-02 1.0000000000e-02 0.0000000000e+00
7.0000000000e-02 1.0000000000e-02 0.0000000000e+00
8.0000000000e-02 1.0000000000e-02 0.0000000000e+00
9.0000000000e-02 1.0000000000e-02 0.0000000000e+00
1.0000000000e-01 1.0000000000e-02 0.0000000000e+00
1.1000000000e-01 1.0000000000e-02 0.0000000000e+00
1.2000000000e-01 1.0000000000e-02 0.0000000000e+00
1.3000000000e-01 1.0000000000e-02 0.0000000000e+00
1.4000000000e-01 1.0000000000e-02 0.0000000000e+00
1.5000000000e-01 1.0000000000e-02 0.0000000000e+00
1.6000000000e-01 1.0000000000e-02 0.0000000000e+00
1.7000000000e-01 1.0000000000e-02 0.0000000000e+00
1.8000000000e-01 1.0000000000e-02 0.0000000000e+00
1.9000000000e-01 1.0000000000e-02 0.0000000000e+00
2.0000000000e-01 1.0000000000e-02 0.0000000000e+00
2.1000000000e-01 1.0000000000e-02 0.0000000000e+00
2.2000000000e-01 1.0000000000e-02 0.0000000000e+00
2.3000000000e-01 1.0000000000e-02 0.0000000000e+00
2.4000000000e-01 1.0000000000e-02 0.0000000000e+00
2.5000000000e-01 1.0000000000e-02 0.0000000000e+00
2.6000000000e-01 1.0000000000e-02 0.0000000000e+00
2.7000000000e-01 1.0000000000e-02 0.0000000000e+00
2.8000000000e-01 1.0000000000e-02 0.0000000000e+00
2.9000000000e-01 1.0000000000e-02 0.0000000000e+00
3.0000000000e-01 1.0000000000e-02 0.0000000000e+00
3.1000000000e-01 1.0000000000e-02 0.0000000000e+00
3.2000000000e-01 1.0000000000e-02 0.0000000000e+00
3.3000000000e-01 1.0000000000e-02 0.0000000000e+00
3.4000000000e-01 1.0000000000e-02 0.0000000000e+00
3.5000000000e-01 1.0000000000e-02 0.0000000000e+00
3.6000000000e-01 1.0000000000e-02 0.0000000000e+00
3.7000000000e-01 1.0000000000e-02 0.0000000000e+00
3.8000000000e-01 1.0000000000e-02 0.0000000000e+00
3.9000000000e-01 1.0000000000e-02 0.0000000000e+00
4.0000000000e-01 1.0000000000e-02 0.0000000000e+00
4.1000000000e-01 1.0000000000e-02 0.0000000000e+00
4.2000000000e-01 1.0000000000e-02 0.0000000000e+00
4.3000000000e-01 1.0000000000e-02 0.0000000000e+00
4.4000000000e-01 1.0000000000e-02 0.0000000000e+00
4.5000000000e-01 1.0000000000e-02 0.0000000000e+00
4.6000000000e-01 1.0000000000e-02 0.0000000000e+00
4.7000000000e-01 1.0000000000e-02 0.0000000000e+00
4.8000000000e-01 1.0000000000e-02 0.0000000000e+00
4.9000000000e-01 1.0000000000e-02 0.0000000000e+00
5.0000000000e-01 1.0000000000e-02 0.0000000000e+00
5.1000000000e-01 1.0000000000e-02 0.0000000000e+00
5.2000000000e-01 1.0000000000e-02 0.0000000000e+00
5.3000000000e-01 1.0000000000e-02 0.0000000000e+00
5.4000000000e-01 1.0000000000e-02 0.0000000000e+00
5.5000000000e-01 1.0000000000e-02 0.0000000000e+00
5.6000000000e-01 1.0000000000e-02 0.0000000000e+00
5.7000000000e-01 1.0000000000e-02 0.0000000000e+00
5.8000000000e-01 1.0000000000e-02 0.0000000000e+00
5.9000000000e-01 1.0000000000e-02 0.0000000000e+00
6.0000000000e-01 1.0000000000e-02 0.0000000000e+00
6.1000000000e-01 1.0000000000e-02 0.0000000000e+00
6.2000000000e-01 1.0000000000e-02 0.0000000000e+00
6.3000000000e-01 1.0000000000e-02 0.0000000000e+00
6.4000000000e-01 1.0000000000e-02 0.0000000000e+00
6.5000000000e-01 1.0000000000e-02 0.0000000000e+00
6.6000000000e-01 1.0000000000e-02 0.0000000000e+00
6.7000000000e-01 1.0000000000e-02 0.0000000000e+00
6.8000000000e-01 1.0000000000e-02 0.0000000000e+00
6.9000000000e-01 1.0000000000e-02 0.0000000000e+00
7.0000000000e-01 1.0000000000e-02 0.0000000000e+00
7.1000000000e-01 1.0000000000e-02 0.0000000000e+00
7.2000000000e-01 1.0000000000e-02 0.0000000000e+00
7.3000000000e-01 1.0000000000e-02 0.0000000000e+00
7.4000000000e-01 1.0000000000e-02 0.0000000000e+00
7.5000000000e-01 1.0000000000e-02 0.0000000000e+00
7.6000000000e-01 1.0000000000e-02 0.0000000000e+00
7.7000000000e-01 1.0000000000e-02 0.0000000000e+00
7.8000000000e-01 1.0000000000e-02 0.0000000000e+00
7.9000000000e-01 1.0000000000e-02 0.0000000000e+00
8.0000000000e-01 1.0000000000e-02 0.0000000000e+00
8.1000000000e-01 1.0000000000e-02 0.0000000000e+00
8.2000000000e-01 1.0000000000e-02 0.0000000000e+00
8.3000000000e-01 1.0000000000e-02 0.0000000000e+00
8.4000000000e-01 1.0000000000e-02 0.0000000000e+00
8.5000000000e-01 1.0000000000e-02 0.0000000000e+00
8.6000000000e-01 1.0000000000e-02 0.0000000000e+00
8.7000000000e-01 1.0000000000e-02 0.0000000000e+00
8.8000000000e-01 1.0000000000e-02 0.0000000000e+00
8.9000000000e-01 1.0000000000e-02 0.0000000000e+00
9.0000000000e-01 1.0000000000e-02 0.0000000000e+00
9.1000000000e-01 1.0000000000e-02 0.0000000000e+00
9.2000000000e-01 1.0000000000e-02 0.0000000000e+00
[...]
CELL_DATA 10000

SCALARS massDensity float
LOOKUP_TABLE default
1.1998217573e+00
1.1998205736e+00
1.1998814981e+00
1.1999627608e+00
1.2000636986e+00
1.2001833029e+00
1.2003202134e+00
1.2004727626e+00
1.2006390433e+00
1.2008169701e+00
1.2010043456e+00
1.2011989143e+00
1.2013984212e+00
1.2016006554e+00
1.2018034982e+00
1.2020049559e+00
1.2022031948e+00
1.2023965621e+00
1.2025836073e+00
1.2027630904e+00
1.2029339904e+00
1.2030955016e+00
1.2032470318e+00
1.2033881880e+00
1.2035187670e+00
1.2036387344e+00
1.2037482098e+00
1.2038474428e+00
1.2039367952e+00
1.2040167177e+00
1.2040877316e+00
1.2041504075e+00
1.2042053502e+00
1.2042531797e+00
1.2042945198e+00
1.2043299840e+00
1.2043601677e+00
1.2043856376e+00
1.2044069287e+00
1.2044245374e+00
1.2044389210e+00
1.2044504946e+00
1.2044596329e+00
1.2044666691e+00
1.2044718986e+00
1.2044755793e+00
1.2044779363e+00
1.2044791626e+00
1.2044794245e+00
1.2044788624e+00
1.2044775957e+00
1.2044757240e+00
1.2044733318e+00
1.2044704885e+00
1.2044672531e+00
1.2044636740e+00
1.2044597930e+00
1.2044556444e+00
1.2044512587e+00
1.2044466614e+00
1.2044418763e+00
1.2044369238e+00
1.2044318240e+00
1.2044265947e+00
1.2044212540e+00
1.2044158187e+00
1.2044103063e+00
1.2044047330e+00
1.2043991161e+00
1.2043934718e+00
1.2043878172e+00
1.2043821683e+00
1.2043765419e+00
1.2043709537e+00
1.2043654197e+00
1.2043599548e+00
1.2043545742e+00
1.2043492917e+00
1.2043441213e+00
1.2043390752e+00
1.2043341662e+00
1.2043294052e+00
1.2043248034e+00
1.2043203706e+00
1.2043161168e+00
1.2043120511e+00
1.2043081827e+00
1.2043045207e+00
1.2043010750e+00
1.2042978559e+00
1.2042948760e+00
1.2042921500e+00
1.2042896973e+00
1.2042875436e+00
1.2042857242e+00
1.2042842885e+00
1.2042833045e+00
1.2042828635e+00
1.2042830769e+00
1.2042748013e+00
1.1998205736e+00
1.1998092270e+00
1.1998643259e+00
1.1999408526e+00
1.2000377600e+00
1.2001537890e+00
1.2002874291e+00
1.2004369375e+00
1.2006003707e+00
1.2007756366e+00
1.2009605394e+00
1.2011528367e+00
1.2013502821e+00
1.2015506772e+00
1.2017519075e+00
1.2019519844e+00
1.2021490706e+00
1.2023415100e+00
1.2025278410e+00
1.2027068136e+00
1.2028773902e+00
1.2030387514e+00
1.2031902855e+00
1.2033315845e+00
1.2034624260e+00
1.2035827612e+00
1.2036926925e+00
1.2037924574e+00
1.2038824038e+00
1.2039629731e+00
1.2040346763e+00
1.2040980780e+00
1.2041537756e+00
1.2042023860e+00
1.2042445285e+00
1.2042808157e+00
1.2043118404e+00
1.2043381703e+00
1.2043603391e+00
1.2043788451e+00
1.2043941454e+00
1.2044066574e+00
1.2044167560e+00
1.2044247768e+00
1.2044310154e+00
1.2044357322e+00
1.2044391520e+00
1.2044414700e+00
1.2044428518e+00
1.2044434393e+00
1.2044433509e+00
1.2044426872e+00
1.2044415307e+00
1.2044399512e+00
1.2044380053e+00
1.2044357411e+00
1.2044331972e+00
1.2044304068e+00
1.2044273970e+00
1.2044241916e+00
1.2044208103e+00
1.2044172715e+00
1.2044135907e+00
1.2044097832e+00
1.2044058625e+00
1.2044018426e+00
1.2043977361e+00
1.2043935566e+00
1.2043893164e+00
1.2043850291e+00
1.2043807070e+00
1.2043763639e+00
1.2043720121e+00
1.2043676652e+00
1.2043633354e+00
1.2043590362e+00
1.2043547792e+00
1.2043505773e+00
1.2043464418e+00
1.2043423845e+00
1.2043384160e+00
1.2043345472e+00
1.2043307877e+00
1.2043271475e+00
1.2043236355e+00
1.2043202608e+00
1.2043170316e+00
1.2043139565e+00
1.2043110437e+00
1.2043083021e+00
1.2043057405e+00
1.2043033695e+00
1.2043012003e+00
1.2042992467e+00
1.2042975245e+00
1.2042960518e+00
1.2042948465e+00
1.2042939203e+00
1.2042932608e+00
1.2042834369e+00
1.1998814981e+00
1.1998643259e+00
1.1999171343e+00
1.1999915993e+00
1.2000865333e+00
1.2002005734e+00
1.2003321536e+00
1.2004795022e+00
1.2006406760e+00
1.2008135913e+00
1.2009960763e+00
1.2011859102e+00
1.2013808772e+00
1.2015788026e+00
1.2017776010e+00
1.2019753039e+00
1.2021700981e+00
1.2023603420e+00
1.2025445912e+00
1.2027216040e+00
1.2028903538e+00
1.2030500234e+00
1.2032000064e+00
1.2033398925e+00
1.2034694598e+00
1.2035886540e+00
1.2036975747e+00
1.2037964515e+00
1.2038856279e+00
1.2039655361e+00
1.2040366816e+00
1.2040996197e+00
1.2041549420e+00
1.2042032564e+00
1.2042451768e+00
1.2042813072e+00
1.2043122356e+00
1.2043385221e+00
1.2043606963e+00
1.2043792497e+00
1.2043946360e+00
1.2044072668e+00
1.2044175141e+00
1.2044257087e+00
1.2044321439e+00
1.2044370756e+00
1.2044407272e+00
1.2044432898e+00
1.2044449278e+00
1.2044457796e+00
1.2044459626e+00
1.2044455741e+00
1.2044446960e+00
1.2044433949e+00
1.2044417269e+00
1.2044397369e+00
1.2044374633e+00
1.2044349365e+00
1.2044321829e+00
1.2044292239e+00
1.2044260786e+00
1.2044227630e+00
1.2044192923e+00
1.2044156794e+00
1.2044119378e+00
1.2044080792e+00
1.2044041164e+00
1.2044000608e+00
1.2043959252e+00
1.2043917215e+00
1.2043874628e+00
1.2043831611e+00
1.2043788300e+00
1.2043744817e+00
1.2043701301e+00
1.2043657874e+00
1.2043614674e+00
1.2043571823e+00
1.2043529453e+00
1.2043487682e+00
1.2043446638e+00
1.2043406430e+00
1.2043367179e+00
1.2043328989e+00
1.2043291968e+00
1.2043256215e+00
1.2043221830e+00
1.2043188903e+00
1.2043157531e+00
1.2043127798e+00
1.2043099798e+00
1.2043073617e+00
1.2043049345e+00
1.2043027067e+00
1.2043006857e+00
1.2042988758e+00
1.2042972739e+00
1.2042958609e+00
1.2042945845e+00
1.2042840333e+00
1.1999627608e+00
1.1999408526e+00
1.1999915993e+00
1.2000638435e+00
1.2001563961e+00
1.2002678800e+00
1.2003967149e+00
1.2005411355e+00
1.2006992097e+00
1.2008688828e+00
1.2010480106e+00
1.2012344121e+00
1.2014259044e+00
1.2016203541e+00
1.2018157068e+00
1.2020100310e+00
1.2022015388e+00
1.2023886180e+00
1.2025698421e+00
1.2027439903e+00
1.2029100459e+00
1.2030672044e+00
1.2032148622e+00
1.2033526142e+00
1.2034802356e+00
1.2035976717e+00
1.2037050148e+00
1.2038024901e+00
1.2038904308e+00
1.2039692624e+00
1.2040394786e+00
1.2041016267e+00
1.2041562860e+00
1.2042040560e+00
1.2042455389e+00
1.2042813308e+00
1.2043120088e+00
1.2043381257e+00
1.2043602014e+00
1.2043787213e+00
1.2043941307e+00
1.2044068358e+00
1.2044172016e+00
1.2044255547e+00
1.2044321822e+00
1.2044373369e+00
1.2044412367e+00
1.2044440703e+00
1.2044459975e+00
1.2044471546e+00
1.2044476552e+00
1.2044475948e+00
1.2044470516e+00
1.2044460910e+00
1.2044447655e+00
1.2044431192e+00
1.2044411869e+00
1.2044389982e+00
1.2044365762e+00
1.2044339416e+00
1.2044311103e+00
1.2044280977e+00
1.2044249159e+00
1.2044215775e+00
1.2044180929e+00
1.2044144736e+00
1.2044107298e+00
1.2044068728e+00
1.2044029130e+00
1.2043988625e+00
1.2043947323e+00
1.2043905351e+00
1.2043862826e+00
1.2043819881e+00
1.2043776640e+00
1.2043733240e+00
1.2043689809e+00
1.2043646485e+00
1.2043603397e+00
1.2043560682e+00
1.2043518465e+00
1.2043476882e+00
1.2043436052e+00
1.2043396103e+00
1.2043357150e+00
1.2043319311e+00
1.2043282693e+00
1.2043247405e+00
1.2043213545e+00
1.2043181210e+00
1.2043150486e+00
1.2043121458e+00
1.2043094191e+00
1.2043068739e+00
1.2043045117e+00
1.2043023293e+00
1.2043003133e+00
1.2042984346e+00
1.2042966365e+00
1.2042858265e+00
1.2000636986e+00
1.2000377600e+00
1.2000865333e+00
1.2001563961e+00
1.2002462157e+00
1.2003546396e+00
1.2004801142e+00
1.2006208969e+00
1.2007750932e+00
1.2009406830e+00
1.2011155710e+00
1.2012976179e+00
1.2014846936e+00
1.2016747066e+00
1.2018656525e+00
1.2020556367e+00
1.2022429139e+00
1.2024259005e+00
1.2026032030e+00
1.2027736196e+00
1.2029361559e+00
1.2030900172e+00
1.2032346124e+00
1.2033695379e+00
1.2034945728e+00
1.2036096572e+00
1.2037148811e+00
1.2038104597e+00
1.2038967190e+00
1.2039740716e+00
1.2040430014e+00
1.2041040412e+00
1.2041577595e+00
1.2042047410e+00
1.2042455768e+00
1.2042808491e+00
1.2043111243e+00
1.2043369429e+00
1.2043588153e+00
1.2043772158e+00
1.2043925816e+00
1.2044053097e+00
1.2044157584e+00
1.2044242461e+00
1.2044310550e+00
1.2044364309e+00
1.2044405877e+00
1.2044437083e+00
1.2044459494e+00
1.2044474425e+00
1.2044482984e+00
1.2044486084e+00
1.2044484487e+00
1.2044478808e+00
1.2044469554e+00
1.2044457128e+00
1.2044441865e+00
1.2044424023e+00
1.2044403824e+00
1.2044381435e+00
1.2044357007e+00
1.2044330658e+00
1.2044302501e+00
1.2044272627e+00
1.2044241133e+00
1.2044208101e+00
1.2044173627e+00
1.2044137797e+00
1.2044100710e+00
1.2044062459e+00
1.2044023156e+00
1.2043982904e+00
1.2043941825e+00
1.2043900031e+00
1.2043857656e+00
1.2043814821e+00
1.2043771666e+00
1.2043728320e+00
1.2043684927e+00
1.2043641620e+00
1.2043598544e+00
1.2043555831e+00
1.2043513627e+00
1.2043472058e+00
1.2043431265e+00
1.2043391369e+00
1.2043352501e+00
1.2043314773e+00
1.2043278301e+00
1.2043243185e+00
1.2043209522e+00
1.2043177387e+00
1.2043146844e+00
1.2043117923e+00
1.2043090622e+00
1.2043064870e+00
1.2043040515e+00
1.2043017265e+00
1.2042994650e+00
1.2042887570e+00
1.2001833029e+00
1.2001537890e+00
1.2002005734e+00
1.2002678800e+00
1.2003546396e+00
1.2004595532e+00
1.2005811076e+00
1.2007176097e+00
1.2008672089e+00
1.2010279433e+00
1.2011977681e+00
1.2013746073e+00
1.2015563834e+00
1.2017410673e+00
1.2019267033e+00
1.2021114528e+00
1.2022936109e+00
1.2024716400e+00
1.2026441763e+00
1.2028100519e+00
1.2029682911e+00
1.2031181207e+00
1.2032589574e+00
1.2033904082e+00
1.2035122511e+00
1.2036244275e+00
1.2037270190e+00
1.2038202353e+00
1.2039043893e+00
1.2039798834e+00
1.2040471855e+00
1.2041068155e+00
1.2041593248e+00
1.2042052844e+00
1.2042452685e+00
1.2042798458e+00
1.2043095670e+00
1.2043349600e+00
1.2043565215e+00
1.2043747147e+00
1.2043899648e+00
1.2044026596e+00
1.2044131474e+00
1.2044217391e+00
1.2044287084e+00
1.2044342952e+00
1.2044387066e+00
1.2044421208e+00
1.2044446886e+00
1.2044465379e+00
1.2044477746e+00
1.2044484871e+00
1.2044487472e+00
1.2044486139e+00
1.2044481341e+00
1.2044473460e+00
1.2044462792e+00
1.2044449579e+00
1.2044434003e+00
1.2044416217e+00
1.2044396336e+00
1.2044374461e+00
1.2044350669e+00
1.2044325039e+00
1.2044297632e+00
1.2044268520e+00
1.2044237763e+00
1.2044205438e+00
1.2044171613e+00
1.2044136376e+00
1.2044099809e+00
1.2044062012e+00
1.2044023081e+00
1.2043983134e+00
1.2043942279e+00
1.2043900646e+00
1.2043858358e+00
1.2043815555e+00
1.2043772370e+00
1.2043728951e+00
1.2043685436e+00
1.2043641980e+00
1.2043598721e+00
1.2043555813e+00
1.2043513394e+00
1.2043471612e+00
1.2043430599e+00
1.2043390493e+00
1.2043351411e+00
1.2043313474e+00
1.2043276778e+00
1.2043241414e+00
1.2043207441e+00
1.2043174895e+00
1.2043143764e+00
1.2043113991e+00
1.2043085432e+00
1.2043057857e+00
1.2043030912e+00
1.2042927822e+00
1.2003202134e+00
1.2002874291e+00
1.2003321536e+00
1.2003967149e+00
1.2004801142e+00
1.2005811076e+00
1.2006982433e+00
1.2008298819e+00
1.2009742395e+00
1.2011294133e+00
1.2012934311e+00
1.2014642794e+00
1.2016399544e+00
1.2018184871e+00
1.2019979909e+00
1.2021766798e+00
1.2023529082e+00
1.2025251804e+00
1.2026921789e+00
1.2028527650e+00
1.2030059952e+00
1.2031511127e+00
1.2032875531e+00
1.2034149282e+00
1.2035330230e+00
1.2036417741e+00
1.2037412608e+00
1.2038316808e+00
1.2039133380e+00
1.2039866180e+00
1.2040519753e+00
1.2041099109e+00
1.2041609605e+00
1.2042056757e+00
1.2042446143e+00
1.2042783265e+00
1.2043073477e+00
1.2043321887e+00
1.2043533323e+00
1.2043712271e+00
1.2043862863e+00
1.2043988853e+00
1.2044093624e+00
1.2044180182e+00
1.2044251187e+00
1.2044308953e+00
1.2044355487e+00
1.2044392504e+00
1.2044421463e+00
1.2044443587e+00
1.2044459897e+00
1.2044471227e+00
1.2044478267e+00
1.2044481562e+00
1.2044481556e+00
1.2044478592e+00
1.2044472943e+00
1.2044464813e+00
1.2044454364e+00
1.2044441712e+00
1.2044426951e+00
1.2044410147e+00
1.2044391359e+00
1.2044370627e+00
1.2044347996e+00
1.2044323503e+00
1.2044297192e+00
1.2044269104e+00
1.2044239297e+00
1.2044207823e+00
1.2044174756e+00
1.2044140164e+00
1.2044104141e+00
1.2044066774e+00
1.2044028172e+00
1.2043988443e+00
1.2043947712e+00
1.2043906103e+00
1.2043863757e+00
1.2043820808e+00
1.2043777412e+00
1.2043733710e+00
1.2043689865e+00
1.2043646022e+00
1.2043602345e+00
1.2043558980e+00
1.2043516084e+00
1.2043473795e+00
1.2043432259e+00
1.2043391596e+00
1.2043351928e+00
1.2043313346e+00
1.2043275931e+00
1.2043239724e+00
1.2043204737e+00
1.2043170927e+00
1.2043138201e+00
1.2043106391e+00
1.2043075264e+00
1.2042978805e+00
1.2004727626e+00
1.2004369375e+00
1.2004795022e+00
1.2005411355e+00
1.2006208969e+00
1.2007176097e+00
1.2008298819e+00
1.2009561472e+00
1.2010946875e+00
1.2012436803e+00
1.2014012240e+00
1.2015653886e+00
1.2017342408e+00
1.2019058926e+00
1.2020785218e+00
1.2022504152e+00
1.2024199811e+00
1.2025857835e+00
1.2027465455e+00
1.2029011731e+00
1.2030487490e+00
1.2031885455e+00
1.2033200107e+00
1.2034427710e+00
1.2035566119e+00
1.2036614727e+00
1.2037574237e+00
1.2038446558e+00
1.2039234573e+00
1.2039942008e+00
1.2040573211e+00
1.2041133023e+00
1.2041626588e+00
1.2042059238e+00
1.2042436340e+00
1.2042763214e+00
1.2043045016e+00
1.2043286687e+00
1.2043492879e+00
1.2043667931e+00
1.2043815824e+00
1.2043940190e+00
1.2044044285e+00
1.2044131017e+00
1.2044202943e+00
1.2044262298e+00
1.2044311009e+00
1.2044350728e+00
1.2044382849e+00
1.2044408547e+00
1.2044428789e+00
1.2044444373e+00
1.2044455940e+00
1.2044464008e+00
1.2044468978e+00
1.2044471169e+00
1.2044470813e+00
1.2044468094e+00
1.2044463134e+00
1.2044456028e+00
1.2044446834e+00
1.2044435596e+00
1.2044422335e+00
1.2044407072e+00
1.2044389814e+00
1.2044370578e+00
1.2044349370e+00
1.2044326216e+00
1.2044301134e+00
1.2044274163e+00
1.2044245340e+00
1.2044214724e+00
1.2044182372e+00
1.2044148366e+00
1.2044112784e+00
1.2044075732e+00
1.2044037309e+00
1.2043997640e+00
1.2043956846e+00
1.2043915071e+00
1.2043872450e+00
1.2043829141e+00
1.2043785293e+00
1.2043741073e+00
1.2043696635e+00
1.2043652149e+00
1.2043607769e+00
1.2043563660e+00
1.2043519966e+00
1.2043476837e+00
1.2043434397e+00
1.2043392766e+00
1.2043352033e+00
1.2043312269e+00
1.2043273505e+00
1.2043235742e+00
1.2043198929e+00
1.2043162976e+00
1.2043127746e+00
1.2043040444e+00
1.2006390433e+00
1.2006003707e+00
1.2006406760e+00
1.2006992097e+00
1.2007750932e+00
1.2008672089e+00
1.2009742395e+00
1.2010946875e+00
1.2012269197e+00
1.2013691897e+00
1.2015196871e+00
1.2016765608e+00
1.2018379686e+00
1.2020020978e+00
1.2021672110e+00
1.2023316612e+00
1.2024939295e+00
1.2026526328e+00
1.2028065518e+00
1.2029546296e+00
1.2030959898e+00
1.2032299263e+00
1.2033559112e+00
1.2034735786e+00
1.2035827233e+00
1.2036832803e+00
1.2037753172e+00
1.2038590119e+00
1.2039346413e+00
1.2040025588e+00
1.2040631823e+00
1.2041169737e+00
1.2041644275e+00
1.2042060536e+00
1.2042423686e+00
1.2042738818e+00
1.2043010895e+00
1.2043244656e+00
1.2043444576e+00
1.2043614817e+00
1.2043759214e+00
1.2043881247e+00
1.2043984051e+00
1.2044070413e+00
1.2044142792e+00
1.2044203327e+00
1.2044253869e+00
1.2044295993e+00
1.2044331036e+00
1.2044360111e+00
1.2044384140e+00
1.2044403873e+00
1.2044419916e+00
1.2044432743e+00
1.2044442728e+00
1.2044450149e+00
1.2044455217e+00
1.2044458076e+00
1.2044458827e+00
1.2044457529e+00
1.2044454217e+00
1.2044448898e+00
1.2044441572e+00
1.2044432223e+00
1.2044420835e+00
1.2044407387e+00
1.2044391865e+00
1.2044374254e+00
1.2044354555e+00
1.2044332766e+00
1.2044308909e+00
1.2044283003e+00
1.2044255093e+00
1.2044225223e+00
1.2044193463e+00
1.2044159884e+00
1.2044124582e+00
1.2044087651e+00
1.2044049214e+00
1.2044009388e+00
1.2043968315e+00
1.2043926134e+00
1.2043883004e+00
1.2043839079e+00
1.2043794529e+00
1.2043749516e+00
1.2043704215e+00
1.2043658787e+00
1.2043613402e+00
1.2043568211e+00
1.2043523368e+00
1.2043478999e+00
1.2043435227e+00
1.2043392141e+00
1.2043349811e+00
1.2043308273e+00
1.2043267534e+00
1.2043227566e+00
1.2043188322e+00
1.2043112710e+00
1.2008169701e+00
1.2007756366e+00
1.2008135913e+00
1.2008688828e+00
1.2009406830e+00
1.2010279433e+00
1.2011294133e+00
1.2012436803e+00
1.2013691897e+00
1.2015042904e+00
1.2016472564e+00
1.2017963356e+00
1.2019497700e+00
1.2021058422e+00
1.2022628920e+00
1.2024193577e+00
1.2025737852e+00
1.2027248620e+00
1.2028714179e+00
1.2030124492e+00
1.2031471116e+00
1.2032747338e+00
1.2033948043e+00
1.2035069748e+00
1.2036110420e+00
1.2037069442e+00
1.2037947400e+00
1.2038745992e+00
1.2039467812e+00
1.2040116241e+00
1.2040695231e+00
1.2041209203e+00
1.2041662853e+00
1.2042061064e+00
1.2042408753e+00
1.2042710799e+00
1.2042971934e+00
1.2043196696e+00
1.2043389359e+00
1.2043553908e+00
1.2043694005e+00
1.2043812983e+00
1.2043913838e+00
1.2043999236e+00
1.2044071525e+00
1.2044132750e+00
1.2044184673e+00
1.2044228801e+00
1.2044266402e+00
1.2044298533e+00
1.2044326065e+00
1.2044349706e+00
1.2044370018e+00
1.2044387443e+00
1.2044402318e+00
1.2044414894e+00
1.2044425349e+00
1.2044433800e+00
1.2044440319e+00
1.2044444940e+00
1.2044447664e+00
1.2044448477e+00
1.2044447343e+00
1.2044444222e+00
1.2044439064e+00
1.2044431822e+00
1.2044422447e+00
1.2044410899e+00
1.2044397140e+00
1.2044381147e+00
1.2044362901e+00
1.2044342402e+00
1.2044319654e+00
1.2044294686e+00
1.2044267529e+00
1.2044238241e+00
1.2044206882e+00
1.2044173538e+00
1.2044138298e+00
1.2044101277e+00
1.2044062590e+00
1.2044022377e+00
1.2043980776e+00
1.2043937947e+00
1.2043894046e+00
1.2043849246e+00
1.2043803714e+00
1.2043757630e+00
1.2043711160e+00
1.2043664480e+00
1.2043617746e+00
1.2043571118e+00
1.2043524729e+00
1.2043478707e+00
1.2043433148e+00
1.2043388138e+00
1.2043343728e+00
1.2043299957e+00
1.2043256842e+00
1.2043195535e+00
1.2010043456e+00
1.2009605394e+00
1.2009960763e+00
1.2010480106e+00
1.2011155710e+00
1.2011977681e+00
1.2012934311e+00
1.2014012240e+00
1.2015196871e+00
1.2016472564e+00
1.2017823093e+00
1.2019231839e+00
1.2020682256e+00
1.2022158037e+00
1.2023643540e+00
1.2025123908e+00
1.2026585432e+00
1.2028015594e+00
1.2029403351e+00
1.2030739101e+00
1.2032014866e+00
1.2033224193e+00
1.2034362243e+00
1.2035425631e+00
1.2036412433e+00
1.2037321992e+00
1.2038154867e+00
1.2038912613e+00
1.2039597697e+00
1.2040213285e+00
1.2040763139e+00
1.2041251425e+00
1.2041682619e+00
1.2042061338e+00
1.2042392267e+00
1.2042680033e+00
1.2042929145e+00
1.2043143912e+00
1.2043328407e+00
1.2043486420e+00
1.2043621440e+00
1.2043736638e+00
1.2043834869e+00
1.2043918668e+00
1.2043990272e+00
1.2044051624e+00
1.2044104403e+00
1.2044150035e+00
1.2044189726e+00
1.2044224474e+00
1.2044255102e+00
1.2044282272e+00
1.2044306510e+00
1.2044328221e+00
1.2044347714e+00
1.2044365209e+00
1.2044380858e+00
1.2044394751e+00
1.2044406935e+00
1.2044417417e+00
1.2044426175e+00
1.2044433164e+00
1.2044438327e+00
1.2044441590e+00
1.2044442880e+00
1.2044442115e+00
1.2044439222e+00
1.2044434122e+00
1.2044426754e+00
1.2044417055e+00
1.2044404982e+00
1.2044390495e+00
1.2044373574e+00
1.2044354208e+00
1.2044332408e+00
1.2044308190e+00
1.2044281598e+00
1.2044252681e+00
1.2044221514e+00
1.2044188177e+00
1.2044152777e+00
1.2044115425e+00
1.2044076255e+00
1.2044035402e+00
1.2043993027e+00
1.2043949284e+00
1.2043904351e+00
1.2043858394e+00
1.2043811599e+00
1.2043764137e+00
1.2043716191e+00
1.2043667922e+00
1.2043619500e+00
1.2043571068e+00
1.2043522766e+00
1.2043474711e+00
1.2043427010e+00
1.2043379750e+00
1.2043333013e+00
1.2043288727e+00
1.2011989143e+00
1.2011528367e+00
1.2011859102e+00
1.2012344121e+00
1.2012976179e+00
1.2013746073e+00
1.2014642794e+00
1.2015653886e+00
1.2016765608e+00
1.2017963356e+00
1.2019231839e+00
1.2020555522e+00
1.2021918791e+00
1.2023306386e+00
1.2024703523e+00
1.2026096285e+00
1.2027471684e+00
1.2028817982e+00
1.2030124687e+00
1.2031382782e+00
1.2032584656e+00
1.2033724242e+00
1.2034796888e+00
1.2035799406e+00
1.2036729904e+00
1.2037587763e+00
1.2038373443e+00
1.2039088415e+00
1.2039734958e+00
1.2040316065e+00
1.2040835254e+00
1.2041296470e+00
1.2041703915e+00
1.2042061969e+00
1.2042375043e+00
1.2042647524e+00
1.2042883671e+00
1.2043087570e+00
1.2043263073e+00
1.2043413776e+00
1.2043542980e+00
1.2043653696e+00
1.2043748625e+00
1.2043830176e+00
1.2043900464e+00
1.2043961335e+00
1.2044014377e+00
1.2044060942e+00
1.2044102166e+00
1.2044138995e+00
1.2044172201e+00
1.2044202405e+00
1.2044230097e+00
1.2044255651e+00
1.2044279346e+00
1.2044301378e+00
1.2044321873e+00
1.2044340901e+00
1.2044358485e+00
1.2044374609e+00
1.2044389230e+00
1.2044402280e+00
1.2044413674e+00
1.2044423318e+00
1.2044431108e+00
1.2044436940e+00
1.2044440704e+00
1.2044442300e+00
1.2044441627e+00
1.2044438599e+00
1.2044433131e+00
1.2044425159e+00