# vtk DataFile Version 2.0
Blank
ASCII
DATASET STRUCTURED_GRID
DIMENSIONS 101 101 2
POINTS 20402 float
0.0000000000e+00 0.0000000000e+00 0.0000000000e+00
1.0000000000e-02 0.0000000000e+00 0.0000000000e+00
2.0000000000e-02 0.0000000000e+00 0.0000000000e+00
3.0000000000e-02 0.0000000000e+00 0.0000000000e+00
4.0000000000e-02 0.0000000000e+00 0.0000000000e+00
5.0000000000e-02 0.0000000000e+00 0.0000000000e+00
6.0000000000e-02 0.0000000000e+00 0.0000000000e+00
7.0000000000e-02 0.0000000000e+00 0.0000000000e+00
8.0000000000e-02 0.0000000000e+00 0.0000000000e+00
9.0000000000e-02 0.0000000000e+00 0.0000000000e+00
1.0000000000e-01 0.0000000000e+00 0.0000000000e+00
1.1000000000e-01 0.0000000000e+00 0.0000000000e+00
1.2000000000e-01 0.0000000000e+00 0.0000000000e+00
1.3000000000e-01 0.0000000000e+00 0.0000000000e+00
1.4000000000e-01 0.0000000000e+00 0.0000000000e+00
1.5000000000e-01 0.0000000000e+00 0.0000000000e+00
1.6000000000e-01 0.0000000000e+00 0.0000000000e+00
1.7000000000e-01 0.0000000000e+00 0.0000000000e+00
1.8000000000e-01 0.0000000000e+00 0.0000000000e+00
1.9000000000e-01 0.0000000000e+00 0.0000000000e+00
2.0000000000e-01 0.0000000000e+00 0.0000000000e+00
2.1000000000e-01 0.0000000000e+00 0.0000000000e+00
2.2000000000e-01 0.0000000000e+00 0.0000000000e+00
2.3000000000e-01 0.0000000000e+00 0.0000000000e+00
2.4000000000e-01 0.0000000000e+00 0.0000000000e+00
2.5000000000e-01 0.0000000000e+00 0.0000000000e+00
2.6000000000e-01 0.0000000000e+00 0.0000000000e+00
2.7000000000e-01 0.0000000000e+00 0.0000000000e+00
2.8000000000e-01 0.0000000000e+00 0.0000000000e+00
2.9000000000e-01 0.0000000000e+00 0.0000000000e+00
3.0000000000e-01 0.0000000000e+00 0.0000000000e+00
3.1000000000e-01 0.0000000000e+00 0.0000000000e+00
3.2000000000e-01 0.0000000000e+00 0.0000000000e+00
3.3000000000e-01 0.0000000000e+00 0.0000000000e+00
3.4000000000e-01 0.0000000000e+00 0.0000000000e+00
3.5000000000e-01 0.0000000000e+00 0.0000000000e+00
3.6000000000e-01 0.0000000000e+00 0.0000000000e+00
3.7000000000e-01 0.0000000000e+00 0.0000000000e+00
3.8000000000e-01 0.0000000000e+00 0.0000000000e+00
3.9000000000e-01 0.0000000000e+00 0.0000000000e+00
4.0000000000e-01 0.0000000000e+00 0.0000000000e+00
4.1000000000e-01 0.0000000000e+00 0.0000000000e+00
4.2000000000e-01 0.0000000000e+00 0.0000000000e+00
4.3000000000e-01 0.0000000000e+00 0.0000000000e+00
4.4000000000e-01 0.0000000000e+00 0.0000000000e+00
4.5000000000e-01 0.0000000000e+00 0.0000000000e+00
4.6000000000e-01 0.0000000000e+00 0.0000000000e+00
4.7000000000e-01 0.0000000000e+00 0.0000000000e+00
4.8000000000e-01 0.0000000000e+00 0.0000000000e+00
4.9000000000e-01 0.0000000000e+00 0.0000000000e+00
5.0000000000e-01 0.0000000000e+00 0.0000000000e+00
5.1000000000e-01 0.0000000000e+00 0.0000000000e+00
5.2000000000e-01 0.0000000000e+00 0.0000000000e+00
5.3000000000e-01 0.0000000000e+00 0.0000000000e+00
5.4000000000e-01 0.0000000000e+00 0.0000000000e+00
5.5000000000e-01 0.0000000000e+00 0.0000000000e+00
5.6000000000e-01 0.0000000000e+00 0.0000000000e+00
5.7000000000e-01 0.0000000000e+00 0.0000000000e+00
5.8000000000e-01 0.0000000000e+00 0.0000000000e+00
5.9000000000e-01 0.0000000000e+00 0.0000000000e+00
6.0000000000e-01 0.0000000000e+00 0.0000000000e+00
6.1000000000e-01 0.0000000000e+00 0.0000000000e+00
6.2000000000e-01 0.0000000000e+00 0.0000000000e+00
6.3000000000e-01 0.0000000000e+00 0.0000000000e+00
6.4000000000e-01 0.0000000000e+00 0.0000000000e+00
6.5000000000e-01 0.0000000000e+00 0.0000000000e+00
6.6000000000e-01 0.0000000000e+00 0.0000000000e+00
6.7000000000e-01 0.0000000000e+00 0.0000000000e+00
6.8000000000e-01 0.0000000000e+00 0.0000000000e+00
6.9000000000e-01 0.0000000000e+00 0.0000000000e+00
7.0000000000e-01 0.0000000000e+00 0.0000000000e+00
7.1000000000e-01 0.0000000000e+00 0.0000000000e+00
7.2000000000e-01 0.0000000000e+00 0.0000000000e+00
7.3000000000e-01 0.0000000000e+00 0.0000000000e+00
7.4000000000e-01 0.0000000000e+00 0.0000000000e+00
7.5000000000e-01 0.0000000000e+00 0.0000000000e+00
7.6000000000e-01 0.0000000000e+00 0.0000000000e+00
7.7000000000e-01 0.0000000000e+00 0.0000000000e+00
7.8000000000e-01 0.0000000000e+00 0.0000000000e+00
7.9000000000e-01 0.0000000000e+00 0.0000000000e+00
8.0000000000e-01 0.0000000000e+00 0.0000000000e+00
8.1000000000e-01 0.0000000000e+00 0.0000000000e+00
8.2000000000e-01 0.0000000000e+00 0.0000000000e+00
8.3000000000e-01 0.0000000000e+00 0.0000000000e+00
8.4000000000e-01 0.0000000000e+00 0.0000000000e+00
8.5000000000e-01 0.0000000000e+00 0.0000000000e+00
8.6000000000e-01 0.0000000000e+00 0.0000000000e+00
8.7000000000e-01 0.0000000000e+00 0.0000000000e+00
8.8000000000e-01 0.0000000000e+00 0.0000000000e+00
8.9000000000e-01 0.0000000000e+00 0.0000000000e+00
9.0000000000e-01 0.0000000000e+00 0.0000000000e+00
9.1000000000e-01 0.0000000000e+00 0.0000000000e+00
9.2000000000e-01 0.0000000000e+00 0.0000000000e+00
9.3000000000e-01 0.0000000000e+00 0.0000000000e+00
9.4000000000e-01 0.0000000000e+00 0.0000000000e+00
9.5000000000e-01 0.0000000000e+00 0.0000000000e+00
9.6000000000e-01 0.0000000000e+00 0.0000000000e+00
9.7000000000e-01 0.0000000000e+00 0.0000000000e+00
9.8000000000e-01 0.0000000000e+00 0.0000000000e+00
9.9000000000e-01 0.0000000000e+00 0.0000000000e+00
1.0000000000e+00 0.0000000000e+00 0.0000000000e+00
0.0000000000e+00 1.0000000000e-02 0.0000000000e+00
1.0000000000e-02 1.0000000000e-02 0.0000000000e+00
2.0000000000e-02 1.0000000000e-02 0.0000000000e+00
3.0000000000e-02 1.0000000000e-02 0.0000000000e+00
4.0000000000e-02 1.0000000000e-02 0.0000000000e+00
5.0000000000e-02 1.0000000000e-02 0.0000000000e+00
6.0000000000e-02 1.0000000000e-02 0.0000000000e+00
7.0000000000e-02 1.0000000000e-02 0.0000000000e+00
8.0000000000e-02 1.0000000000e-02 0.0000000000e+00
9.0000000000e-02 1.0000000000e-02 0.0000000000e+00
1.0000000000e-01 1.0000000000e-02 0.0000000000e+00
1.1000000000e-01 1.0000000000e-02 0.0000000000e+00
1.2000000000e-01 1.0000000000e-02 0.0000000000e+00
1.3000000000e-01 1.0000000000e-02 0.0000000000e+00
1.4000000000e-01 1.0000000000e-02 0.0000000000e+00
1.5000000000e-01 1.0000000000e-02 0.0000000000e+00
1.6000000000e-01 1.0000000000e-02 0.0000000000e+00
1.7000000000e-01 1.0000000000e-02 0.0000000000e+00
1.8000000000e-01 1.0000000000e-02 0.0000000000e+00
1.9000000000e-01 1.0000000000e-02 0.0000000000e+00
2.0000000000e-01 1.0000000000e-02 0.0000000000e+00
2.1000000000e-01 1.0000000000e-02 0.0000000000e+00
2.2000000000e-01 1.0000000000e-02 0.0000000000e+00
2.3000000000e-01 1.0000000000e-02 0.0000000000e+00
2.4000000000e-01 1.0000000000e-02 0.0000000000e+00
2.5000000000e-01 1.0000000000e-02 0.0000000000e+00
2.6000000000e-01 1.0000000000e-02 0.0000000000e+00
2.7000000000e-01 1.0000000000e-02 0.0000000000e+00
2.8000000000e-01 1.0000000000e-02 0.0000000000e+00
2.9000000000e-01 1.0000000000e-02 0.0000000000e+00
3.0000000000e-01 1.0000000000e-02 0.0000000000e+00
3.1000000000e-01 1.0000000000e-02 0.0000000000e+00
3.2000000000e-01 1.0000000000e-02 0.0000000000e+00
3.3000000000e-01 1.0000000000e-02 0.0000000000e+00
3.4000000000e-01 1.0000000000e-02 0.0000000000e+00
3.5000000000e-01 1.0000000000e-02 0.0000000000e+00
3.6000000000e-01 1.0000000000e-02 0.0000000000e+00
3.7000000000e-01 1.0000000000e-02 0.0000000000e+00
3.8000000000e-01 1.0000000000e-02 0.0000000000e+00
3.9000000000e-01 1.0000000000e-02 0.0000000000e+00
4.0000000000e-01 1.0000000000e-02 0.0000000000e+00
4.1000000000e-01 1.0000000000e-02 0.0000000000e+00
4.2000000000e-01 1.0000000000e-02 0.0000000000e+00
4.3000000000e-01 1.0000000000e-02 0.0000000000e+00
4.4000000000e-01 1.0000000000e-02 0.0000000000e+00
4.5000000000e-01 1.0000000000e-02 0.0000000000e+00
4.6000000000e-01 1.0000000000e-02 0.0000000000e+00
4.7000000000e-01 1.0000000000e-02 0.0000000000e+00
4.8000000000e-01 1.0000000000e-02 0.0000000000e+00
4.9000000000e-01 1.0000000000e-02 0.0000000000e+00
5.0000000000e-01 1.0000000000e-02 0.0000000000e+00
5.1000000000e-01 1.0000000000e-02 0.0000000000e+00
5.2000000000e-01 1.0000000000e-02 0.0000000000e+00
5.3000000000e-01 1.0000000000e-02 0.0000000000e+00
5.4000000000e-01 1.0000000000e-02 0.0000000000e+00
5.5000000000e-01 1.0000000000e-02 0.0000000000e+00
5.6000000000e-01 1.0000000000e-02 0.0000000000e+00
5.7000000000e-01 1.0000000000e-02 0.0000000000e+00
5.8000000000e-01 1.0000000000e-02 0.0000000000e+00
5.9000000000e-01 1.0000000000e-02 0.0000000000e+00
6.0000000000e-01 1.0000000000e-02 0.0000000000e+00
6.1000000000e-01 1.0000000000e-02 0.0000000000e+00
6.2000000000e-01 1.0000000000e-02 0.0000000000e+00
6.3000000000e-01 1.0000000000e-02 0.0000000000e+00
6.4000000000e-01 1.0000000000e-02 0.0000000000e+00
6.5000000000e-01 1.0000000000e-02 0.0000000000e+00
6.6000000000e-01 1.0000000000e-02 0.0000000000e+00
6.7000000000e-01 1.0000000000e-02 0.0000000000e+00
6.8000000000e-01 1.0000000000e-02 0.0000000000e+00
6.9000000000e-01 1.0000000000e-02 0.0000000000e+00
7.0000000000e-01 1.0000000000e-02 0.0000000000e+00
7.1000000000e-01 1.0000000000e-02 0.0000000000e+00
7.2000000000e-01 1.0000000000e-02 0.0000000000e+00
7.3000000000e-01 1.0000000000e-02 0.0000000000e+00
7.4000000000e-01 1.0000000000e-02 0.0000000000e+00
7.5000000000e-01 1.0000000000e-02 0.0000000000e+00
7.6000000000e-01 1.0000000000e-02 0.0000000000e+00
7.7000000000e-01 1.0000000000e-02 0.0000000000e+00
7.8000000000e-01 1.0000000000e-02 0.0000000000e+00
7.9000000000e-01 1.0000000000e-02 0.0000000000e+00
8.0000000000e-01 1.0000000000e-02 0.0000000000e+00
8.1000000000e-01 1.0000000000e-02 0.0000000000e+00
8.2000000000e-01 1.0000000000e-02 0.0000000000e+00
8.3000000000e-01 1.0000000000e-02 0.0000000000e+00
8.4000000000e-01 1.0000000000e-02 0.0000000000e+00
8.5000000000e-01 1.0000000000e-02 0.0000000000e+00
8.6000000000e-01 1.0000000000e-02 0.0000000000e+00
8.7000000000e-01 1.0000000000e-02 0.0000000000e+00
8.8000000000e-01 1.0000000000e-02 0.0000000000e+00
8.9000000000e-01 1.0000000000e-02 0.0000000000e+00
9.0000000000e-01 1.0000000000e-02 0.0000000000e+00
9.1000000000e-01 1.0000000000e-02 0.0000000000e+00
9.2000000000e-01 1.0000000000e-02 0.0000000000e+00
[...]
CELL_DATA 10000

SCALARS massDensity float
LOOKUP_TABLE default
1.1801083147e+00
1.1808646440e+00
1.1819075138e+00
1.1834047578e+00
1.1852519267e+00
1.1873300299e+00
1.1895166423e+00
1.1916977572e+00
1.1937759113e+00
1.1956769507e+00
1.1973519207e+00
1.1987771394e+00
1.1999504697e+00
1.2008870233e+00
1.2016132732e+00
1.2021621544e+00
1.2025683287e+00
1.2028651409e+00
1.2030823514e+00
1.2032452934e+00
1.2033745932e+00
1.2034866395e+00
1.2035942095e+00
1.2037072445e+00
1.2038335251e+00
1.2039791380e+00
1.2041487625e+00
1.2043455612e+00
1.2045709225e+00
1.2048237535e+00
1.2050998647e+00
1.2053911241e+00
1.2056852485e+00
1.2059658531e+00
1.2062137906e+00
1.2064089642e+00
1.2065334634e+00
1.2065743556e+00
1.2065267902e+00
1.2063951055e+00
1.2061931259e+00
1.2059416239e+00
1.2056653973e+00
1.2053887162e+00
1.2051321991e+00
1.2049099766e+00
1.2047292800e+00
1.2045908140e+00
1.2044906657e+00
1.2044221589e+00
1.2043778204e+00
1.2043506414e+00
1.2043348646e+00
1.2043261891e+00
1.2043216720e+00
1.2043194454e+00
1.2043184069e+00
1.2043179490e+00
1.2043177582e+00
1.2043176831e+00
1.2043176553e+00
1.2043176456e+00
1.2043176424e+00
1.2043176414e+00
1.2043176411e+00
1.2043176410e+00
1.2043176410e+00
1.2043176410e+00
1.2043176410e+00
1.2043176410e+00
1.2043176410e+00
1.2043176410e+00
1.2043176410e+00
1.2043176410e+00
1.2043176410e+00
1.2043176410e+00
1.2043176410e+00
1.2043176410e+00
1.2043176410e+00
1.2043176410e+00
1.2043176410e+00
1.2043176410e+00
1.2043176410e+00
1.2043176410e+00
1.2043176410e+00
1.2043176410e+00
1.2043176410e+00
1.2043176410e+00
1.2043176410e+00
1.2043176410e+00
1.2043176410e+00
1.2043176410e+00
1.2043176410e+00
1.2043176410e+00
1.2043176410e+00
1.2043176410e+00
1.2043176410e+00
1.2043176410e+00
1.2043176410e+00
1.2043176410e+00
1.1808646440e+00
1.1816506794e+00
1.1826903156e+00
1.1841653103e+00
1.1859773167e+00
1.1880114286e+00
1.1901496849e+00
1.1922806711e+00
1.1943100064e+00
1.1961649141e+00
1.1977981651e+00
1.1991863580e+00
1.2003278500e+00
1.2012371695e+00
1.2019403754e+00
1.2024692933e+00
1.2028576506e+00
1.2031374656e+00
1.2033373281e+00
1.2034811900e+00
1.2035883925e+00
1.2036739254e+00
1.2037492070e+00
1.2038228236e+00
1.2039013124e+00
1.2039898130e+00
1.2040925034e+00
1.2042129084e+00
1.2043537979e+00
1.2045169718e+00
1.2047025239e+00
1.2049081620e+00
1.2051282020e+00
1.2053531765e+00
1.2055696736e+00
1.2057615075e+00
1.2059113830e+00
1.2060039320e+00
1.2060283118e+00
1.2059811361e+00
1.2058671667e+00
1.2056994040e+00
1.2054962082e+00
1.2052786294e+00
1.2050661142e+00
1.2048742473e+00
1.2047125622e+00
1.2045848945e+00
1.2044900105e+00
1.2044235622e+00
1.2043796046e+00
1.2043521353e+00
1.2043358978e+00
1.2043268228e+00
1.2043220246e+00
1.2043196262e+00
1.2043184929e+00
1.2043179870e+00
1.2043177739e+00
1.2043176892e+00
1.2043176575e+00
1.2043176463e+00
1.2043176426e+00
1.2043176415e+00
1.2043176411e+00
1.2043176410e+00
1.2043176410e+00
1.2043176410e+00
1.2043176410e+00
1.2043176410e+00
1.2043176410e+00
1.2043176410e+00
1.2043176410e+00
1.2043176410e+00
1.2043176410e+00
1.2043176410e+00
1.2043176410e+00
1.2043176410e+00
1.2043176410e+00
1.2043176410e+00
1.2043176410e+00
1.2043176410e+00
1.2043176410e+00
1.2043176410e+00
1.2043176410e+00
1.2043176410e+00
1.2043176410e+00
1.2043176410e+00
1.2043176410e+00
1.2043176410e+00
1.2043176410e+00
1.2043176410e+00
1.2043176410e+00
1.2043176410e+00
1.2043176410e+00
1.2043176410e+00
1.2043176410e+00
1.2043176410e+00
1.2043176410e+00
1.2043176410e+00
1.1819075138e+00
1.1826903156e+00
1.1836905013e+00
1.1851026837e+00
1.1868333812e+00
1.1887745945e+00
1.1908134695e+00
1.1928449474e+00
1.1947784559e+00
1.1965455409e+00
1.1981006843e+00
1.1994223067e+00
1.2005084948e+00
1.2013736043e+00
1.2020422105e+00
1.2025449289e+00
1.2029136622e+00
1.2031790081e+00
1.2033679547e+00
1.2035032468e+00
1.2036030214e+00
1.2036813491e+00
1.2037487885e+00
1.2038132475e+00
1.2038807196e+00
1.2039559991e+00
1.2040432583e+00
1.2041463841e+00
1.2042691312e+00
1.2044147926e+00
1.2045856233e+00
1.2047817068e+00
1.2049998327e+00
1.2052322998e+00
1.2054665434e+00
1.2056855384e+00
1.2058697641e+00
1.2059999810e+00
1.2060610959e+00
1.2060451519e+00
1.2059538765e+00
1.2057982272e+00
1.2055970480e+00
1.2053727141e+00
1.2051477203e+00
1.2049402882e+00
1.2047628462e+00
1.2046208834e+00
1.2045143630e+00
1.2044391003e+00
1.2043889948e+00
1.2043574927e+00
1.2043387929e+00
1.2043283001e+00
1.2043227377e+00
1.2043199511e+00
1.2043186326e+00
1.2043180437e+00
1.2043177955e+00
1.2043176969e+00
1.2043176601e+00
1.2043176471e+00
1.2043176428e+00
1.2043176415e+00
1.2043176411e+00
1.2043176410e+00
1.2043176410e+00
1.2043176410e+00
1.2043176410e+00
1.2043176410e+00
1.2043176410e+00
1.2043176410e+00
1.2043176410e+00
1.2043176410e+00
1.2043176410e+00
1.2043176410e+00
1.2043176410e+00
1.2043176410e+00
1.2043176410e+00
1.2043176410e+00
1.2043176410e+00
1.2043176410e+00
1.2043176410e+00
1.2043176410e+00
1.2043176410e+00
1.2043176410e+00
1.2043176410e+00
1.2043176410e+00
1.2043176410e+00
1.2043176410e+00
1.2043176410e+00
1.2043176410e+00
1.2043176410e+00
1.2043176410e+00
1.2043176410e+00
1.2043176410e+00
1.2043176410e+00
1.2043176410e+00
1.2043176410e+00
1.2043176410e+00
1.1834047578e+00
1.1841653103e+00
1.1851026837e+00
1.1864211653e+00
1.1880348416e+00
1.1898424781e+00
1.1917403611e+00
1.1936299134e+00
1.1954280594e+00
1.1970704001e+00
1.1985155838e+00
1.1997430235e+00
1.2007516764e+00
1.2015545386e+00
1.2021749330e+00
1.2026410553e+00
1.2029828007e+00
1.2032283692e+00
1.2034028945e+00
1.2035272619e+00
1.2036182262e+00
1.2036885826e+00
1.2037479427e+00
1.2038033994e+00
1.2038603743e+00
1.2039233247e+00
1.2039963986e+00
1.2040839181e+00
1.2041905410e+00
1.2043210808e+00
1.2044797154e+00
1.2046687797e+00
1.2048871086e+00
1.2051285200e+00
1.2053808172e+00
1.2056260366e+00
1.2058421663e+00
1.2060065110e+00
1.2060997644e+00
1.2061104074e+00
1.2060371692e+00
1.2058901766e+00
1.2056883581e+00
1.2054563217e+00
1.2052187217e+00
1.2049968503e+00
1.2048050527e+00
1.2046506235e+00
1.2045340671e+00
1.2044514599e+00
1.2043962936e+00
1.2043615744e+00
1.2043409419e+00
1.2043293698e+00
1.2043232386e+00
1.2043201721e+00
1.2043187242e+00
1.2043180792e+00
1.2043178084e+00
1.2043177013e+00
1.2043176615e+00
1.2043176475e+00
1.2043176430e+00
1.2043176415e+00
1.2043176411e+00
1.2043176410e+00
1.2043176410e+00
1.2043176410e+00
1.2043176410e+00
1.2043176410e+00
1.2043176410e+00
1.2043176410e+00
1.2043176410e+00
1.2043176410e+00
1.2043176410e+00
1.2043176410e+00
1.2043176410e+00
1.2043176410e+00
1.2043176410e+00
1.2043176410e+00
1.2043176410e+00
1.2043176410e+00
1.2043176410e+00
1.2043176410e+00
1.2043176410e+00
1.2043176410e+00
1.2043176410e+00
1.2043176410e+00
1.2043176410e+00
1.2043176410e+00
1.2043176410e+00
1.2043176410e+00
1.2043176410e+00
1.2043176410e+00
1.2043176410e+00
1.2043176410e+00
1.2043176410e+00
1.2043176410e+00
1.2043176410e+00
1.2043176410e+00
1.1852519267e+00
1.1859773167e+00
1.1868333812e+00
1.1880348416e+00
1.1895025844e+00
1.1911458314e+00
1.1928693499e+00
1.1945849468e+00
1.1962162652e+00
1.1977060458e+00
1.1990160529e+00
1.2001285586e+00
1.2010421379e+00
1.2017692450e+00
1.2023307062e+00
1.2027524848e+00
1.2030614330e+00
1.2032832894e+00
1.2034406001e+00
1.2035522955e+00
1.2036333065e+00
1.2036951021e+00
1.2037461351e+00
1.2037926851e+00
1.2038395578e+00
1.2038909098e+00
1.2039509289e+00
1.2040243978e+00
1.2041169528e+00
1.2042348475e+00
1.2043841176e+00
1.2045690606e+00
1.2047902510e+00
1.2050425635e+00
1.2053137704e+00
1.2055845935e+00
1.2058304689e+00
1.2060252243e+00
1.2061459896e+00
1.2061778982e+00
1.2061179108e+00
1.2059752542e+00
1.2057701785e+00
1.2055288054e+00
1.2052787333e+00
1.2050431901e+00
1.2048387764e+00
1.2046736041e+00
1.2045488717e+00
1.2044603940e+00
1.2044013907e+00
1.2043642935e+00
1.2043423090e+00
1.2043300100e+00
1.2043235189e+00
1.2043202855e+00
1.2043187663e+00
1.2043180935e+00
1.2043178126e+00
1.2043177024e+00
1.2043176616e+00
1.2043176475e+00
1.2043176429e+00
1.2043176415e+00
1.2043176411e+00
1.2043176410e+00
1.2043176410e+00
1.2043176410e+00
1.2043176410e+00
1.2043176410e+00
1.2043176410e+00
1.2043176410e+00
1.2043176410e+00
1.2043176410e+00
1.2043176410e+00
1.2043176410e+00
1.2043176410e+00
1.2043176410e+00
1.2043176410e+00
1.2043176410e+00
1.2043176410e+00
1.2043176410e+00
1.2043176410e+00
1.2043176410e+00
1.2043176410e+00
1.2043176410e+00
1.2043176410e+00
1.2043176410e+00
1.2043176410e+00
1.2043176410e+00
1.2043176410e+00
1.2043176410e+00
1.2043176410e+00
1.2043176410e+00
1.2043176410e+00
1.2043176410e+00
1.2043176410e+00
1.2043176410e+00
1.2043176410e+00
1.2043176410e+00
1.1873300299e+00
1.1880114286e+00
1.1887745945e+00
1.1898424781e+00
1.1911458314e+00
1.1926030247e+00
1.1941309385e+00
1.1956503344e+00
1.1970948768e+00
1.1984129709e+00
1.1995718814e+00
1.2005552934e+00
1.2013627856e+00
1.2020049665e+00
1.2025008083e+00
1.2028729865e+00
1.2031455424e+00
1.2033409936e+00
1.2034793671e+00
1.2035771540e+00
1.2036474939e+00
1.2037002658e+00
1.2037428093e+00
1.2037804954e+00
1.2038175893e+00
1.2038579810e+00
1.2039059930e+00
1.2039669650e+00
1.2040475584e+00
1.2041554777e+00
1.2042984865e+00
1.2044825869e+00
1.2047097226e+00
1.2049752888e+00
1.2052665940e+00
1.2055625882e+00
1.2058360155e+00
1.2060573947e+00
1.2062005568e+00
1.2062482866e+00
1.2061960112e+00
1.2060534608e+00
1.2058418055e+00
1.2055898290e+00
1.2053269601e+00
1.2050789816e+00
1.2048634778e+00
1.2046896503e+00
1.2045585304e+00
1.2044658483e+00
1.2044042138e+00
1.2043656457e+00
1.2043428855e+00
1.2043302258e+00
1.2043235819e+00
1.2043202947e+00
1.2043187613e+00
1.2043180875e+00
1.2043178088e+00
1.2043177003e+00
1.2043176607e+00
1.2043176471e+00
1.2043176428e+00
1.2043176415e+00
1.2043176411e+00
1.2043176410e+00
1.2043176410e+00
1.2043176410e+00
1.2043176410e+00
1.2043176410e+00
1.2043176410e+00
1.2043176410e+00
1.2043176410e+00
1.2043176410e+00
1.2043176410e+00
1.2043176410e+00
1.2043176410e+00
1.2043176410e+00
1.2043176410e+00
1.2043176410e+00
1.2043176410e+00
1.2043176410e+00
1.2043176410e+00
1.2043176410e+00
1.2043176410e+00
1.2043176410e+00
1.2043176410e+00
1.2043176410e+00
1.2043176410e+00
1.2043176410e+00
1.2043176410e+00
1.2043176410e+00
1.2043176410e+00
1.2043176410e+00
1.2043176410e+00
1.2043176410e+00
1.2043176410e+00
1.2043176410e+00
1.2043176410e+00
1.2043176410e+00
1.1895166423e+00
1.1901496849e+00
1.1908134695e+00
1.1917403611e+00
1.1928693499e+00
1.1941309385e+00
1.1954521041e+00
1.1967656343e+00
1.1980131930e+00
1.1991514063e+00
1.2001512447e+00
1.2009995901e+00
1.2016955705e+00
1.2022490256e+00
1.2026759860e+00
1.2029964254e+00
1.2032308217e+00
1.2033987790e+00
1.2035173231e+00
1.2036006801e+00
1.2036599172e+00
1.2037034451e+00
1.2037373615e+00
1.2037662475e+00
1.2037938272e+00
1.2038238663e+00
1.2038609152e+00
1.2039110082e+00
1.2039819028e+00
1.2040827704e+00
1.2042229391e+00
1.2044098795e+00
1.2046463624e+00
1.2049278810e+00
1.2052405632e+00
1.2055613273e+00
1.2058599136e+00
1.2061037418e+00
1.2062639301e+00
1.2063213645e+00
1.2062712914e+00
1.2061239293e+00
1.2059028025e+00
1.2056384491e+00
1.2053630848e+00
1.2051036122e+00
1.2048790678e+00
1.2046985203e+00
1.2045630882e+00
1.2044677893e+00
1.2044048293e+00
1.2043656570e+00
1.2043427122e+00
1.2043300393e+00
1.2043234443e+00
1.2043202090e+00
1.2043187142e+00
1.2043180640e+00
1.2043177980e+00
1.2043176958e+00
1.2043176589e+00
1.2043176465e+00
1.2043176426e+00
1.2043176414e+00
1.2043176411e+00
1.2043176410e+00
1.2043176410e+00
1.2043176410e+00
1.2043176410e+00
1.2043176410e+00
1.2043176410e+00
1.2043176410e+00
1.2043176410e+00
1.2043176410e+00
1.2043176410e+00
1.2043176410e+00
1.2043176410e+00
1.2043176410e+00
1.2043176410e+00
1.2043176410e+00
1.2043176410e+00
1.2043176410e+00
1.2043176410e+00
1.2043176410e+00
1.2043176410e+00
1.2043176410e+00
1.2043176410e+00
1.2043176410e+00
1.2043176410e+00
1.2043176410e+00
1.2043176410e+00
1.2043176410e+00
1.2043176410e+00
1.2043176410e+00
1.2043176410e+00
1.2043176410e+00
1.2043176410e+00
1.2043176410e+00
1.2043176410e+00
1.2043176410e+00
1.1916977572e+00
1.1922806711e+00
1.1928449474e+00
1.1936299134e+00
1.1945849468e+00
1.1956503344e+00
1.1967656343e+00
1.1978731272e+00
1.1989248223e+00
1.1998833199e+00
1.2007251949e+00
1.2014387998e+00
1.2020241837e+00
1.2024892309e+00
1.2028479470e+00
1.2031168530e+00
1.2033134477e+00
1.2034539709e+00
1.2035528135e+00
1.2036216747e+00
1.2036697869e+00
1.2037039575e+00
1.2037292236e+00
1.2037493505e+00
1.2037677048e+00
1.2037880036e+00
1.2038152253e+00
1.2038562040e+00
1.2039199274e+00
1.2040169699e+00
1.2041581353e+00
1.2043518987e+00
1.2046015046e+00
1.2049017117e+00
1.2052371245e+00
1.2055819233e+00
1.2059029359e+00
1.2061645731e+00
1.2063357875e+00
1.2063966601e+00
1.2063426173e+00
1.2061859336e+00
1.2059519368e+00
1.2056742086e+00
1.2053863217e+00
1.2051170305e+00
1.2048852796e+00
1.2047003865e+00
1.2045625691e+00
1.2044664024e+00
1.2044033273e+00
1.2043644387e+00
1.2043418501e+00
1.2043294974e+00
1.2043231318e+00
1.2043200432e+00
1.2043186326e+00
1.2043180266e+00
1.2043177821e+00
1.2043176894e+00
1.2043176566e+00
1.2043176457e+00
1.2043176423e+00
1.2043176413e+00
1.2043176411e+00
1.2043176410e+00
1.2043176410e+00
1.2043176410e+00
1.2043176410e+00
1.2043176410e+00
1.2043176410e+00
1.2043176410e+00
1.2043176410e+00
1.2043176410e+00
1.2043176410e+00
1.2043176410e+00
1.2043176410e+00
1.2043176410e+00
1.2043176410e+00
1.2043176410e+00
1.2043176410e+00
1.2043176410e+00
1.2043176410e+00
1.2043176410e+00
1.2043176410e+00
1.2043176410e+00
1.2043176410e+00
1.2043176410e+00
1.2043176410e+00
1.2043176410e+00
1.2043176410e+00
1.2043176410e+00
1.2043176410e+00
1.2043176410e+00
1.2043176410e+00
1.2043176410e+00
1.2043176410e+00
1.2043176410e+00
1.2043176410e+00
1.2043176410e+00
1.1937759113e+00
1.1943100064e+00
1.1947784559e+00
1.1954280594e+00
1.1962162652e+00
1.1970948768e+00
1.1980131930e+00
1.1989248223e+00
1.1997894344e+00
1.2005773059e+00
1.2012685261e+00
1.2018543574e+00
1.2023343864e+00
1.2027156759e+00
1.2030094065e+00
1.2032294840e+00
1.2033900061e+00
1.2035044296e+00
1.2035842923e+00
1.2036391533e+00
1.2036762975e+00
1.2037011980e+00
1.2037177984e+00
1.2037292799e+00
1.2037387089e+00
1.2037499996e+00
1.2037686753e+00
1.2038025926e+00
1.2038619866e+00
1.2039588836e+00
1.2041052153e+00
1.2043102157e+00
1.2045767716e+00
1.2048985327e+00
1.2052576051e+00
1.2056253848e+00
1.2059653898e+00
1.2062395582e+00
1.2064153619e+00
1.2064727397e+00
1.2064088142e+00
1.2062378110e+00
1.2059884109e+00
1.2056959991e+00
1.2053965367e+00
1.2051188662e+00
1.2048824020e+00
1.2046953277e+00
1.2045573234e+00
1.2044618729e+00
1.2043999368e+00
1.2043621195e+00
1.2043404030e+00
1.2043286574e+00
1.2043226793e+00
1.2043198156e+00
1.2043185255e+00
1.2043179796e+00
1.2043177627e+00
1.2043176820e+00
1.2043176539e+00
1.2043176448e+00
1.2043176420e+00
1.2043176413e+00
1.2043176411e+00
1.2043176410e+00
1.2043176410e+00
1.2043176410e+00
1.2043176410e+00
1.2043176410e+00
1.2043176410e+00
1.2043176410e+00
1.2043176410e+00
1.2043176410e+00
1.2043176410e+00
1.2043176410e+00
1.2043176410e+00
1.2043176410e+00
1.2043176410e+00
1.2043176410e+00
1.2043176410e+00
1.2043176410e+00
1.2043176410e+00
1.2043176410e+00
1.2043176410e+00
1.2043176410e+00
1.2043176410e+00
1.2043176410e+00
1.2043176410e+00
1.2043176410e+00
1.2043176410e+00
1.2043176410e+00
1.2043176410e+00
1.2043176410e+00
1.2043176410e+00
1.2043176410e+00
1.2043176410e+00
1.2043176410e+00
1.2043176410e+00
1.2043176410e+00
1.1956769507e+00
1.1961649141e+00
1.1965455409e+00
1.1970704001e+00
1.1977060458e+00
1.1984129709e+00
1.1991514063e+00
1.1998833199e+00
1.2005773059e+00
1.2012088567e+00
1.2017628353e+00
1.2022317491e+00
1.2026158935e+00
1.2029205805e+00
1.2031551656e+00
1.2033305075e+00
1.2034580783e+00
1.2035483763e+00
1.2036106360e+00
1.2036522052e+00
1.2036787996e+00
1.2036945391e+00
1.2037025666e+00
1.2037055265e+00
1.2037064706e+00
1.2037096265e+00
1.2037213485e+00
1.2037505894e+00
1.2038089978e+00
1.2039098244e+00
1.2040660076e+00
1.2042867866e+00
1.2045743337e+00
1.2049200737e+00
1.2053034427e+00
1.2056922408e+00
1.2060471205e+00
1.2063277509e+00
1.2065009820e+00
1.2065479018e+00
1.2064676908e+00
1.2062782128e+00
1.2060106175e+00
1.2057034154e+00
1.2053931237e+00
1.2051094553e+00
1.2048705305e+00
1.2046838881e+00
1.2045476565e+00
1.2044546033e+00
1.2043948903e+00
1.2043588998e+00
1.2043384834e+00
1.2043275925e+00
1.2043221258e+00
1.2043195464e+00
1.2043184030e+00
1.2043179273e+00
1.2043177419e+00
1.2043176743e+00
1.2043176512e+00
1.2043176439e+00
1.2043176418e+00
1.2043176412e+00
1.2043176410e+00
1.2043176410e+00
1.2043176410e+00
1.2043176410e+00
1.2043176410e+00
1.2043176410e+00
1.2043176410e+00
1.2043176410e+00
1.2043176410e+00
1.2043176410e+00
1.2043176410e+00
1.2043176410e+00
1.2043176410e+00
1.2043176410e+00
1.2043176410e+00
1.2043176410e+00
1.2043176410e+00
1.2043176410e+00
1.2043176410e+00
1.2043176410e+00
1.2043176410e+00
1.2043176410e+00
1.2043176410e+00
1.2043176410e+00
1.2043176410e+00
1.2043176410e+00
1.2043176410e+00
1.2043176410e+00
1.2043176410e+00
1.2043176410e+00
1.2043176410e+00
1.2043176410e+00
1.2043176410e+00
1.2043176410e+00
1.2043176410e+00
1.2043176410e+00
1.1973519207e+00
1.1977981651e+00
1.1981006843e+00
1.1985155838e+00
1.1990160529e+00
1.1995718814e+00
1.2001512447e+00
1.2007251949e+00
1.2012685261e+00
1.2017628353e+00
1.2021957880e+00
1.2025621510e+00
1.2028617922e+00
1.2030992956e+00
1.2032816851e+00
1.2034176715e+00
1.2035159395e+00
1.2035847251e+00
1.2036309305e+00
1.2036601883e+00
1.2036766547e+00
1.2036834630e+00
1.2036830045e+00
1.2036777147e+00
1.2036707423e+00
1.2036669619e+00
1.2036736677e+00
1.2037011676e+00
1.2037624019e+00
1.2038718492e+00
1.2040428174e+00
1.2042842503e+00
1.2045964544e+00
1.2049683626e+00
1.2053756195e+00
1.2057827323e+00
1.2061472093e+00
1.2064273922e+00
1.2065904483e+00
1.2066194022e+00
1.2065171740e+00
1.2063048628e+00
1.2060176462e+00
1.2056954372e+00
1.2053763288e+00
1.2050888262e+00
1.2048503965e+00
1.2046664997e+00
1.2045342004e+00
1.2044449703e+00
1.2043885373e+00
1.2043549789e+00
1.2043362301e+00
1.2043263776e+00
1.2043215129e+00
1.2043192566e+00
1.2043182745e+00
1.2043178741e+00
1.2043177212e+00
1.2043176668e+00
1.2043176487e+00
1.2043176431e+00
1.2043176416e+00
1.2043176411e+00
1.2043176410e+00
1.2043176410e+00
1.2043176410e+00
1.2043176410e+00
1.2043176410e+00
1.2043176410e+00
1.2043176410e+00
1.2043176410e+00
1.2043176410e+00
1.2043176410e+00
1.2043176410e+00
1.2043176410e+00
1.2043176410e+00
1.2043176410e+00
1.2043176410e+00
1.2043176410e+00
1.2043176410e+00
1.2043176410e+00
1.2043176410e+00
1.2043176410e+00
1.2043176410e+00
1.2043176410e+00
1.2043176410e+00
1.2043176410e+00
1.2043176410e+00
1.2043176410e+00
1.2043176410e+00
1.2043176410e+00
1.2043176410e+00
1.2043176410e+00
1.2043176410e+00
1.2043176410e+00
1.2043176410e+00
1.2043176410e+00
1.2043176410e+00
1.2043176410e+00
1.1987771394e+00
1.1991863580e+00
1.1994223067e+00
1.1997430235e+00
1.2001285586e+00
1.2005552934e+00
1.2009995901e+00
1.2014387998e+00
1.2018543574e+00
1.2022317491e+00
1.2025621510e+00
1.2028412079e+00
1.2030692558e+00
1.2032495005e+00
1.2033875514e+00
1.2034897735e+00
1.2035628543e+00
1.2036127612e+00
1.2036446652e+00
1.2036625249e+00
1.2036693815e+00
1.2036674430e+00
1.2036587235e+00
1.2036455583e+00
1.2036315656e+00
1.2036223949e+00
1.2036266109e+00
1.2036558396e+00
1.2037244304e+00
1.2038475804e+00
1.2040387477e+00
1.2043054687e+00
1.2046458587e+00
1.2050450337e+00
1.2054749878e+00
1.2058962220e+00
1.2062640222e+00
1.2065359185e+00
1.2066805251e+00
1.2066843461e+00
1.2065541888e+00
1.2063161002e+00
1.2060078562e+00
1.2056720178e+00
1.2053459781e+00
1.2050578384e+00
1.2048225361e+00
1.2046440679e+00
1.2045175134e+00
1.2044335346e+00
1.2043812042e+00
1.2043506009e+00
1.2043337765e+00
1.2043250912e+00
1.2043208803e+00
1.2043189650e+00
1.2043181488e+00
1.2043178233e+00
1.2043177021e+00
1.2043176601e+00
1.2043176465e+00
1.2043176425e+00
1.2043176414e+00
1.2043176411e+00
1.2043176410e+00
1.2043176410e+00
1.2043176410e+00
1.2043176410e+00
1.2043176410e+00
1.2043176410e+00
1.2043176410e+00
1.2043176410e+00