# vtk DataFile Version 2.0
Blank
ASCII
DATASET STRUCTURED_GRID
DIMENSIONS 101 101 2
POINTS 20402 float
0.0000000000e+00 0.0000000000e+00 0.0000000000e+00
1.0000000000e-02 0.0000000000e+00 0.0000000000e+00
2.0000000000e-02 0.0000000000e+00 0.0000000000e+00
3.0000000000e-02 0.0000000000e+00 0.0000000000e+00
4.0000000000e-02 0.0000000000e+00 0.0000000000e+00
5.0000000000e-02 0.0000000000e+00 0.0000000000e+00
6.0000000000e-02 0.0000000000e+00 0.0000000000e+00
7.0000000000e-02 0.0000000000e+00 0.0000000000e+00
8.0000000000e-02 0.0000000000e+00 0.0000000000e+00
9.0000000000e-02 0.0000000000e+00 0.0000000000e+00
1.0000000000e-01 0.0000000000e+00 0.0000000000e+00
1.1000000000e-01 0.0000000000e+00 0.0000000000e+00
1.2000000000e-01 0.0000000000e+00 0.0000000000e+00
1.3000000000e-01 0.0000000000e+00 0.0000000000e+00
1.4000000000e-01 0.0000000000e+00 0.0000000000e+00
1.5000000000e-01 0.0000000000e+00 0.0000000000e+00
1.6000000000e-01 0.0000000000e+00 0.0000000000e+00
1.7000000000e-01 0.0000000000e+00 0.0000000000e+00
1.8000000000e-01 0.0000000000e+00 0.0000000000e+00
1.9000000000e-01 0.0000000000e+00 0.0000000000e+00
2.0000000000e-01 0.0000000000e+00 0.0000000000e+00
2.1000000000e-01 0.0000000000e+00 0.0000000000e+00
2.2000000000e-01 0.0000000000e+00 0.0000000000e+00
2.3000000000e-01 0.0000000000e+00 0.0000000000e+00
2.4000000000e-01 0.0000000000e+00 0.0000000000e+00
2.5000000000e-01 0.0000000000e+00 0.0000000000e+00
2.6000000000e-01 0.0000000000e+00 0.0000000000e+00
2.7000000000e-01 0.0000000000e+00 0.0000000000e+00
2.8000000000e-01 0.0000000000e+00 0.0000000000e+00
2.9000000000e-01 0.0000000000e+00 0.0000000000e+00
3.0000000000e-01 0.0000000000e+00 0.0000000000e+00
3.1000000000e-01 0.0000000000e+00 0.0000000000e+00
3.2000000000e-01 0.0000000000e+00 0.0000000000e+00
3.3000000000e-01 0.0000000000e+00 0.0000000000e+00
3.4000000000e-01 0.0000000000e+00 0.0000000000e+00
3.5000000000e-01 0.0000000000e+00 0.0000000000e+00
3.6000000000e-01 0.0000000000e+00 0.0000000000e+00
3.7000000000e-01 0.0000000000e+00 0.0000000000e+00
3.8000000000e-01 0.0000000000e+00 0.0000000000e+00
3.9000000000e-01 0.0000000000e+00 0.0000000000e+00
4.0000000000e-01 0.0000000000e+00 0.0000000000e+00
4.1000000000e-01 0.0000000000e+00 0.0000000000e+00
4.2000000000e-01 0.0000000000e+00 0.0000000000e+00
4.3000000000e-01 0.0000000000e+00 0.0000000000e+00
4.4000000000e-01 0.0000000000e+00 0.0000000000e+00
4.5000000000e-01 0.0000000000e+00 0.0000000000e+00
4.6000000000e-01 0.0000000000e+00 0.0000000000e+00
4.7000000000e-01 0.0000000000e+00 0.0000000000e+00
4.8000000000e-01 0.0000000000e+00 0.0000000000e+00
4.9000000000e-01 0.0000000000e+00 0.0000000000e+00
5.0000000000e-01 0.0000000000e+00 0.0000000000e+00
5.1000000000e-01 0.0000000000e+00 0.0000000000e+00
5.2000000000e-01 0.0000000000e+00 0.0000000000e+00
5.3000000000e-01 0.0000000000e+00 0.0000000000e+00
5.4000000000e-01 0.0000000000e+00 0.0000000000e+00
5.5000000000e-01 0.0000000000e+00 0.0000000000e+00
5.6000000000e-01 0.0000000000e+00 0.0000000000e+00
5.7000000000e-01 0.0000000000e+00 0.0000000000e+00
5.8000000000e-01 0.0000000000e+00 0.0000000000e+00
5.9000000000e-01 0.0000000000e+00 0.0000000000e+00
6.0000000000e-01 0.0000000000e+00 0.0000000000e+00
6.1000000000e-01 0.0000000000e+00 0.0000000000e+00
6.2000000000e-01 0.0000000000e+00 0.0000000000e+00
6.3000000000e-01 0.0000000000e+00 0.0000000000e+00
6.4000000000e-01 0.0000000000e+00 0.0000000000e+00
6.5000000000e-01 0.0000000000e+00 0.0000000000e+00
6.6000000000e-01 0.0000000000e+00 0.0000000000e+00
6.7000000000e-01 0.0000000000e+00 0.0000000000e+00
6.8000000000e-01 0.0000000000e+00 0.0000000000e+00
6.9000000000e-01 0.0000000000e+00 0.0000000000e+00
7.0000000000e-01 0.0000000000e+00 0.0000000000e+00
7.1000000000e-01 0.0000000000e+00 0.0000000000e+00
7.2000000000e-01 0.0000000000e+00 0.0000000000e+00
7.3000000000e-01 0.0000000000e+00 0.0000000000e+00
7.4000000000e-01 0.0000000000e+00 0.0000000000e+00
7.5000000000e-01 0.0000000000e+00 0.0000000000e+00
7.6000000000e-01 0.0000000000e+00 0.0000000000e+00
7.7000000000e-01 0.0000000000e+00 0.0000000000e+00
7.8000000000e-01 0.0000000000e+00 0.0000000000e+00
7.9000000000e-01 0.0000000000e+00 0.0000000000e+00
8.0000000000e-01 0.0000000000e+00 0.0000000000e+00
8.1000000000e-01 0.0000000000e+00 0.0000000000e+00
8.2000000000e-01 0.0000000000e+00 0.0000000000e+00
8.3000000000e-01 0.0000000000e+00 0.0000000000e+00
8.4000000000e-01 0.0000000000e+00 0.0000000000e+00
8.5000000000e-01 0.0000000000e+00 0.0000000000e+00
8.6000000000e-01 0.0000000000e+00 0.0000000000e+00
8.7000000000e-01 0.0000000000e+00 0.0000000000e+00
8.8000000000e-01 0.0000000000e+00 0.0000000000e+00
8.9000000000e-01 0.0000000000e+00 0.0000000000e+00
9.0000000000e-01 0.0000000000e+00 0.0000000000e+00
9.1000000000e-01 0.0000000000e+00 0.0000000000e+00
9.2000000000e-01 0.0000000000e+00 0.0000000000e+00
9.3000000000e-01 0.0000000000e+00 0.0000000000e+00
9.4000000000e-01 0.0000000000e+00 0.0000000000e+00
9.5000000000e-01 0.0000000000e+00 0.0000000000e+00
9.6000000000e-01 0.0000000000e+00 0.0000000000e+00
9.7000000000e-01 0.0000000000e+00 0.0000000000e+00
9.8000000000e-01 0.0000000000e+00 0.0000000000e+00
9.9000000000e-01 0.0000000000e+00 0.0000000000e+00
1.0000000000e+00 0.0000000000e+00 0.0000000000e+00
0.0000000000e+00 1.0000000000e-02 0.0000000000e+00
1.0000000000e-02 1.0000000000e-02 0.0000000000e+00
2.0000000000e-02 1.0000000000e-02 0.0000000000e+00
3.0000000000e-02 1.0000000000e-02 0.0000000000e+00
4.0000000000e-02 1.0000000000e-02 0.0000000000e+00
5.0000000000e-02 1.0000000000e-02 0.0000000000e+00
6.0000000000e-02 1.0000000000e-02 0.0000000000e+00
7.0000000000e-02 1.0000000000e-02 0.0000000000e+00
8.0000000000e-02 1.0000000000e-02 0.0000000000e+00
9.0000000000e-02 1.0000000000e-02 0.0000000000e+00
1.0000000000e-01 1.0000000000e-02 0.0000000000e+00
1.1000000000e-01 1.0000000000e-02 0.0000000000e+00
1.2000000000e-01 1.0000000000e-02 0.0000000000e+00
1.3000000000e-01 1.0000000000e-02 0.0000000000e+00
1.4000000000e-01 1.0000000000e-02 0.0000000000e+00
1.5000000000e-01 1.0000000000e-02 0.0000000000e+00
1.6000000000e-01 1.0000000000e-02 0.0000000000e+00
1.7000000000e-01 1.0000000000e-02 0.0000000000e+00
1.8000000000e-01 1.0000000000e-02 0.0000000000e+00
1.9000000000e-01 1.0000000000e-02 0.0000000000e+00
2.0000000000e-01 1.0000000000e-02 0.0000000000e+00
2.1000000000e-01 1.0000000000e-02 0.0000000000e+00
2.2000000000e-01 1.0000000000e-02 0.0000000000e+00
2.3000000000e-01 1.0000000000e-02 0.0000000000e+00
2.4000000000e-01 1.0000000000e-02 0.0000000000e+00
2.5000000000e-01 1.0000000000e-02 0.0000000000e+00
2.6000000000e-01 1.0000000000e-02 0.0000000000e+00
2.7000000000e-01 1.0000000000e-02 0.0000000000e+00
2.8000000000e-01 1.0000000000e-02 0.0000000000e+00
2.9000000000e-01 1.0000000000e-02 0.0000000000e+00
3.0000000000e-01 1.0000000000e-02 0.0000000000e+00
3.1000000000e-01 1.0000000000e-02 0.0000000000e+00
3.2000000000e-01 1.0000000000e-02 0.0000000000e+00
3.3000000000e-01 1.0000000000e-02 0.0000000000e+00
3.4000000000e-01 1.0000000000e-02 0.0000000000e+00
3.5000000000e-01 1.0000000000e-02 0.0000000000e+00
3.6000000000e-01 1.0000000000e-02 0.0000000000e+00
3.7000000000e-01 1.0000000000e-02 0.0000000000e+00
3.8000000000e-01 1.0000000000e-02 0.0000000000e+00
3.9000000000e-01 1.0000000000e-02 0.0000000000e+00
4.0000000000e-01 1.0000000000e-02 0.0000000000e+00
4.1000000000e-01 1.0000000000e-02 0.0000000000e+00
4.2000000000e-01 1.0000000000e-02 0.0000000000e+00
4.3000000000e-01 1.0000000000e-02 0.0000000000e+00
4.4000000000e-01 1.0000000000e-02 0.0000000000e+00
4.5000000000e-01 1.0000000000e-02 0.0000000000e+00
4.6000000000e-01 1.0000000000e-02 0.0000000000e+00
4.7000000000e-01 1.0000000000e-02 0.0000000000e+00
4.8000000000e-01 1.0000000000e-02 0.0000000000e+00
4.9000000000e-01 1.0000000000e-02 0.0000000000e+00
5.0000000000e-01 1.0000000000e-02 0.0000000000e+00
5.1000000000e-01 1.0000000000e-02 0.0000000000e+00
5.2000000000e-01 1.0000000000e-02 0.0000000000e+00
5.3000000000e-01 1.0000000000e-02 0.0000000000e+00
5.4000000000e-01 1.0000000000e-02 0.0000000000e+00
5.5000000000e-01 1.0000000000e-02 0.0000000000e+00
5.6000000000e-01 1.0000000000e-02 0.0000000000e+00
5.7000000000e-01 1.0000000000e-02 0.0000000000e+00
5.8000000000e-01 1.0000000000e-02 0.0000000000e+00
5.9000000000e-01 1.0000000000e-02 0.0000000000e+00
6.0000000000e-01 1.0000000000e-02 0.0000000000e+00
6.1000000000e-01 1.0000000000e-02 0.0000000000e+00
6.2000000000e-01 1.0000000000e-02 0.0000000000e+00
6.3000000000e-01 1.0000000000e-02 0.0000000000e+00
6.4000000000e-01 1.0000000000e-02 0.0000000000e+00
6.5000000000e-01 1.0000000000e-02 0.0000000000e+00
6.6000000000e-01 1.0000000000e-02 0.0000000000e+00
6.7000000000e-01 1.0000000000e-02 0.0000000000e+00
6.8000000000e-01 1.0000000000e-02 0.0000000000e+00
6.9000000000e-01 1.0000000000e-02 0.0000000000e+00
7.0000000000e-01 1.0000000000e-02 0.0000000000e+00
7.1000000000e-01 1.0000000000e-02 0.0000000000e+00
7.2000000000e-01 1.0000000000e-02 0.0000000000e+00
7.3000000000e-01 1.0000000000e-02 0.0000000000e+00
7.4000000000e-01 1.0000000000e-02 0.0000000000e+00
7.5000000000e-01 1.0000000000e-02 0.0000000000e+00
7.6000000000e-01 1.0000000000e-02 0.0000000000e+00
7.7000000000e-01 1.0000000000e-02 0.0000000000e+00
7.8000000000e-01 1.0000000000e-02 0.0000000000e+00
7.9000000000e-01 1.0000000000e-02 0.0000000000e+00
8.0000000000e-01 1.0000000000e-02 0.0000000000e+00
8.1000000000e-01 1.0000000000e-02 0.0000000000e+00
8.2000000000e-01 1.0000000000e-02 0.0000000000e+00
8.3000000000e-01 1.0000000000e-02 0.0000000000e+00
8.4000000000e-01 1.0000000000e-02 0.0000000000e+00
8.5000000000e-01 1.0000000000e-02 0.0000000000e+00
8.6000000000e-01 1.0000000000e-02 0.0000000000e+00
8.7000000000e-01 1.0000000000e-02 0.0000000000e+00
8.8000000000e-01 1.0000000000e-02 0.0000000000e+00
8.9000000000e-01 1.0000000000e-02 0.0000000000e+00
9.0000000000e-01 1.0000000000e-02 0.0000000000e+00
9.1000000000e-01 1.0000000000e-02 0.0000000000e+00
9.2000000000e-01 1.0000000000e-02 0.0000000000e+00
[...]
CELL_DATA 10000

SCALARS massDensity float
LOOKUP_TABLE default
1.1943086246e+00
1.1944422681e+00
1.1946361621e+00
1.1949248028e+00
1.1952988438e+00
1.1957468013e+00
1.1962555708e+00
1.1968110479e+00
1.1973986797e+00
1.1980040967e+00
1.1986136084e+00
1.1992147176e+00
1.1997964476e+00
1.2003496470e+00
1.2008670957e+00
1.2013435788e+00
1.2017757853e+00
1.2021621945e+00
1.2025028313e+00
1.2027990436e+00
1.2030531991e+00
1.2032684366e+00
1.2034483801e+00
1.2035969269e+00
1.2037180267e+00
1.2038155401e+00
1.2038930990e+00
1.2039540396e+00
1.2040013370e+00
1.2040375972e+00
1.2040650453e+00
1.2040855550e+00
1.2041006667e+00
1.2041116340e+00
1.2041194525e+00
1.2041249084e+00
1.2041286069e+00
1.2041310133e+00
1.2041324756e+00
1.2041332561e+00
1.2041335465e+00
1.2041334898e+00
1.2041331898e+00
1.2041327251e+00
1.2041321542e+00
1.2041315241e+00
1.2041308734e+00
1.2041302368e+00
1.2041296471e+00
1.2041291375e+00
1.2041287435e+00
1.2041285030e+00
1.2041284594e+00
1.2041286601e+00
1.2041291603e+00
1.2041300205e+00
1.2041313111e+00
1.2041331095e+00
1.2041355048e+00
1.2041385947e+00
1.2041424908e+00
1.2041473140e+00
1.2041532016e+00
1.2041603012e+00
1.2041687775e+00
1.2041788058e+00
1.2041905787e+00
1.2042042973e+00
1.2042201773e+00
1.2042384374e+00
1.2042593032e+00
1.2042829907e+00
1.2043097069e+00
1.2043396266e+00
1.2043728865e+00
1.2044095542e+00
1.2044496160e+00
1.2044929389e+00
1.2045392554e+00
1.2045881241e+00
1.2046389222e+00
1.2046908173e+00
1.2047427823e+00
1.2047935957e+00
1.2048418951e+00
1.2048862172e+00
1.2049250959e+00
1.2049571372e+00
1.2049811466e+00
1.2049962102e+00
1.2050018112e+00
1.2049978688e+00
1.2049847901e+00
1.2049634155e+00
1.2049349582e+00
1.2049008203e+00
1.2048624004e+00
1.2048208046e+00
1.2047766643e+00
1.2048225433e+00
1.1944422681e+00
1.1945825312e+00
1.1947782986e+00
1.1950664062e+00
1.1954381420e+00
1.1958824519e+00
1.1963866067e+00
1.1969367469e+00
1.1975185783e+00
1.1981178934e+00
1.1987211999e+00
1.1993161132e+00
1.1998918071e+00
1.2004392018e+00
1.2009511817e+00
1.2014225655e+00
1.2018501043e+00
1.2022322780e+00
1.2025691381e+00
1.2028620081e+00
1.2031132563e+00
1.2033259817e+00
1.2035037925e+00
1.2036505396e+00
1.2037701495e+00
1.2038664370e+00
1.2039430100e+00
1.2040031638e+00
1.2040498525e+00
1.2040856482e+00
1.2041127601e+00
1.2041330353e+00
1.2041480034e+00
1.2041588979e+00
1.2041667077e+00
1.2041722043e+00
1.2041759889e+00
1.2041785158e+00
1.2041801307e+00
1.2041810877e+00
1.2041815763e+00
1.2041817329e+00
1.2041816589e+00
1.2041814265e+00
1.2041810908e+00
1.2041806924e+00
1.2041802646e+00
1.2041798348e+00
1.2041794280e+00
1.2041790685e+00
1.2041787810e+00
1.2041785922e+00
1.2041785306e+00
1.2041786293e+00
1.2041789237e+00
1.2041794557e+00
1.2041802705e+00
1.2041814212e+00
1.2041829648e+00
1.2041849681e+00
1.2041875026e+00
1.2041906507e+00
1.2041945003e+00
1.2041991517e+00
1.2042047105e+00
1.2042112959e+00
1.2042190317e+00
1.2042280554e+00
1.2042385076e+00
1.2042505408e+00
1.2042643069e+00
1.2042799650e+00
1.2042976658e+00
1.2043175571e+00
1.2043397635e+00
1.2043643878e+00
1.2043914839e+00
1.2044210542e+00
1.2044530151e+00
1.2044871911e+00
1.2045232784e+00
1.2045608427e+00
1.2045992895e+00
1.2046378796e+00
1.2046757195e+00
1.2047118084e+00
1.2047450602e+00
1.2047743865e+00
1.2047987473e+00
1.2048172577e+00
1.2048292416e+00
1.2048343293e+00
1.2048324726e+00
1.2048239896e+00
1.2048095043e+00
1.2047899132e+00
1.2047662513e+00
1.2047396272e+00
1.2047111519e+00
1.2047830199e+00
1.1946361621e+00
1.1947782986e+00
1.1949715967e+00
1.1952548101e+00
1.1956195458e+00
1.1960551432e+00
1.1965491817e+00
1.1970881846e+00
1.1976581404e+00
1.1982451985e+00
1.1988361102e+00
1.1994187960e+00
1.1999826140e+00
1.2005187140e+00
1.2010200918e+00
1.2014817102e+00
1.2019003581e+00
1.2022745791e+00
1.2026044004e+00
1.2028911459e+00
1.2031371162e+00
1.2033453693e+00
1.2035194236e+00
1.2036630690e+00
1.2037801379e+00
1.2038743806e+00
1.2039493192e+00
1.2040081921e+00
1.2040538824e+00
1.2040889177e+00
1.2041154527e+00
1.2041353032e+00
1.2041499595e+00
1.2041606352e+00
1.2041682922e+00
1.2041736907e+00
1.2041774139e+00
1.2041799106e+00
1.2041815151e+00
1.2041824790e+00
1.2041829847e+00
1.2041831681e+00
1.2041831257e+00
1.2041829302e+00
1.2041826333e+00
1.2041822760e+00
1.2041818894e+00
1.2041815005e+00
1.2041811331e+00
1.2041808102e+00
1.2041805555e+00
1.2041803938e+00
1.2041803526e+00
1.2041804618e+00
1.2041807559e+00
1.2041812725e+00
1.2041820552e+00
1.2041831514e+00
1.2041846161e+00
1.2041865086e+00
1.2041888973e+00
1.2041918551e+00
1.2041954655e+00
1.2041998165e+00
1.2042050078e+00
1.2042111434e+00
1.2042183392e+00
1.2042267148e+00
1.2042364013e+00
1.2042475322e+00
1.2042602508e+00
1.2042746995e+00
1.2042910275e+00
1.2043093757e+00
1.2043298835e+00
1.2043526683e+00
1.2043778275e+00
1.2044054113e+00
1.2044354179e+00
1.2044677589e+00
1.2045022498e+00
1.2045385722e+00
1.2045762690e+00
1.2046147154e+00
1.2046531336e+00
1.2046905898e+00
1.2047260440e+00
1.2047583833e+00
1.2047865118e+00
1.2048094117e+00
1.2048262546e+00
1.2048364585e+00
1.2048397797e+00
1.2048363212e+00
1.2048265658e+00
1.2048113094e+00
1.2047916382e+00
1.2047688374e+00
1.2047444212e+00
1.2048311289e+00
1.1949248028e+00
1.1950664062e+00
1.1952548101e+00
1.1955301082e+00
1.1958842317e+00
1.1963068502e+00
1.1967860167e+00
1.1973086488e+00
1.1978612430e+00
1.1984303339e+00
1.1990031452e+00
1.1995679213e+00
1.2001144044e+00
1.2006339715e+00
1.2011198836e+00
1.2015672199e+00
1.2019729111e+00
1.2023355146e+00
1.2026550925e+00
1.2029329033e+00
1.2031712060e+00
1.2033729448e+00
1.2035415526e+00
1.2036806865e+00
1.2037940786e+00
1.2038853501e+00
1.2039579281e+00
1.2040149394e+00
1.2040591886e+00
1.2040931154e+00
1.2041188159e+00
1.2041380414e+00
1.2041522425e+00
1.2041625880e+00
1.2041700152e+00
1.2041752549e+00
1.2041788766e+00
1.2041813101e+00
1.2041828829e+00
1.2041838350e+00
1.2041843460e+00
1.2041845444e+00
1.2041845260e+00
1.2041843588e+00
1.2041840947e+00
1.2041837714e+00
1.2041834201e+00
1.2041830659e+00
1.2041827318e+00
1.2041824397e+00
1.2041822117e+00
1.2041820716e+00
1.2041820446e+00
1.2041821595e+00
1.2041824477e+00
1.2041829451e+00
1.2041836911e+00
1.2041847313e+00
1.2041861145e+00
1.2041878976e+00
1.2041901411e+00
1.2041929144e+00
1.2041962909e+00
1.2042003537e+00
1.2042051896e+00
1.2042108958e+00
1.2042175728e+00
1.2042253315e+00
1.2042342854e+00
1.2042445586e+00
1.2042562770e+00
1.2042695773e+00
1.2042845962e+00
1.2043014800e+00
1.2043203707e+00
1.2043414123e+00
1.2043647317e+00
1.2043904387e+00
1.2044185972e+00
1.2044492161e+00
1.2044822114e+00
1.2045173905e+00
1.2045544115e+00
1.2045927742e+00
1.2046317925e+00
1.2046706116e+00
1.2047082143e+00
1.2047434806e+00
1.2047752372e+00
1.2048023603e+00
1.2048238504e+00
1.2048389505e+00
1.2048472043e+00
1.2048485420e+00
1.2048432764e+00
1.2048321232e+00
1.2048161257e+00
1.2047966367e+00
1.2047752335e+00
1.2048742301e+00
1.1952988438e+00
1.1954381420e+00
1.1956195458e+00
1.1958842317e+00
1.1962243922e+00
1.1966301746e+00
1.1970900774e+00
1.1975916274e+00
1.1981218214e+00
1.1986678172e+00
1.1992173031e+00
1.1997590718e+00
1.2002832290e+00
1.2007815654e+00
1.2012475691e+00
1.2016765739e+00
1.2020655963e+00
1.2024132977e+00
1.2027197065e+00
1.2029860662e+00
1.2032145189e+00
1.2034079170e+00
1.2035695335e+00
1.2037028978e+00
1.2038115733e+00
1.2038990495e+00
1.2039685999e+00
1.2040232358e+00
1.2040656356e+00
1.2040981484e+00
1.2041227748e+00
1.2041412018e+00
1.2041548123e+00
1.2041647331e+00
1.2041718564e+00
1.2041768875e+00
1.2041803672e+00
1.2041827117e+00
1.2041842304e+00
1.2041851569e+00
1.2041856597e+00
1.2041858647e+00
1.2041858612e+00
1.2041857163e+00
1.2041854777e+00
1.2041851832e+00
1.2041848610e+00
1.2041845360e+00
1.2041842295e+00
1.2041839624e+00
1.2041837557e+00
1.2041836313e+00
1.2041836135e+00
1.2041837286e+00
1.2041840065e+00
1.2041844799e+00
1.2041851864e+00
1.2041861666e+00
1.2041874677e+00
1.2041891399e+00
1.2041912409e+00
1.2041938316e+00
1.2041969815e+00
1.2042007630e+00
1.2042052572e+00
1.2042105479e+00
1.2042167282e+00
1.2042238930e+00
1.2042321469e+00
1.2042415971e+00
1.2042523616e+00
1.2042645622e+00
1.2042783346e+00
1.2042938199e+00
1.2043111741e+00
1.2043305566e+00
1.2043521353e+00
1.2043760663e+00
1.2044024895e+00
1.2044314961e+00
1.2044631111e+00
1.2044972495e+00
1.2045336919e+00
1.2045720416e+00
1.2046117112e+00
1.2046519029e+00
1.2046916313e+00
1.2047297484e+00
1.2047650194e+00
1.2047961955e+00
1.2048221325e+00
1.2048418809e+00
1.2048548070e+00
1.2048606465e+00
1.2048595753e+00
1.2048521822e+00
1.2048394673e+00
1.2048227401e+00
1.2048035683e+00
1.2049128754e+00
1.1957468013e+00
1.1958824519e+00
1.1960551432e+00
1.1963068502e+00
1.1966301746e+00
1.1970156953e+00
1.1974525559e+00
1.1979288526e+00
1.1984323170e+00
1.1989506922e+00
1.1994723675e+00
1.1999866397e+00
1.2004841885e+00
1.2009571637e+00
1.2013994480e+00
1.2018065642e+00
1.2021757349e+00
1.2025056509e+00
1.2027963837e+00
1.2030490835e+00
1.2032658184e+00
1.2034492721e+00
1.2036025777e+00
1.2037290662e+00
1.2038321396e+00
1.2039150944e+00
1.2039810521e+00
1.2040328579e+00
1.2040730646e+00
1.2041038910e+00
1.2041272442e+00
1.2041447160e+00
1.2041576255e+00
1.2041670343e+00
1.2041737947e+00
1.2041785697e+00
1.2041818768e+00
1.2041841060e+00
1.2041855546e+00
1.2041864402e+00
1.2041869258e+00
1.2041871277e+00
1.2041871330e+00
1.2041870031e+00
1.2041867850e+00
1.2041865129e+00
1.2041862149e+00
1.2041859134e+00
1.2041856294e+00
1.2041853820e+00
1.2041851911e+00
1.2041850774e+00
1.2041850634e+00
1.2041851741e+00
1.2041854367e+00
1.2041858824e+00
1.2041865450e+00
1.2041874634e+00
1.2041886795e+00
1.2041902411e+00
1.2041921991e+00
1.2041946112e+00
1.2041975378e+00
1.2042010465e+00
1.2042052073e+00
1.2042100976e+00
1.2042157964e+00
1.2042223906e+00
1.2042299690e+00
1.2042386302e+00
1.2042484768e+00
1.2042596255e+00
1.2042722022e+00
1.2042863534e+00
1.2043022402e+00
1.2043200478e+00
1.2043399747e+00
1.2043622337e+00
1.2043870287e+00
1.2044145414e+00
1.2044448917e+00
1.2044781078e+00
1.2045140756e+00
1.2045525055e+00
1.2045928894e+00
1.2046344894e+00
1.2046763322e+00
1.2047172483e+00
1.2047559236e+00
1.2047909993e+00
1.2048211702e+00
1.2048453213e+00
1.2048626242e+00
1.2048726546e+00
1.2048754245e+00
1.2048714262e+00
1.2048615651e+00
1.2048471209e+00
1.2048295866e+00
1.2049477287e+00
1.1962555708e+00
1.1963866067e+00
1.1965491817e+00
1.1967860167e+00
1.1970900774e+00
1.1974525559e+00
1.1978631787e+00
1.1983108321e+00
1.1987839158e+00
1.1992709943e+00
1.1997610869e+00
1.2002442176e+00
1.2007115642e+00
1.2011558253e+00
1.2015711976e+00
1.2019535390e+00
1.2023001944e+00
1.2026099872e+00
1.2028829477e+00
1.2031201987e+00
1.2033236541e+00
1.2034958669e+00
1.2036397576e+00
1.2037584788e+00
1.2038552079e+00
1.2039330586e+00
1.2039949481e+00
1.2040435614e+00
1.2040812840e+00
1.2041102095e+00
1.2041321187e+00
1.2041485140e+00
1.2041606258e+00
1.2041694571e+00
1.2041758011e+00
1.2041802855e+00
1.2041833906e+00
1.2041854867e+00
1.2041868484e+00
1.2041876834e+00
1.2041881412e+00
1.2041883339e+00
1.2041883405e+00
1.2041882209e+00
1.2041880171e+00
1.2041877630e+00
1.2041874836e+00
1.2041872011e+00
1.2041869342e+00
1.2041867016e+00
1.2041865215e+00
1.2041864135e+00
1.2041863986e+00
1.2041864998e+00
1.2041867430e+00
1.2041871564e+00
1.2041877722e+00
1.2041886252e+00
1.2041897550e+00
1.2041912041e+00
1.2041930205e+00
1.2041952544e+00
1.2041979625e+00
1.2042012028e+00
1.2042050399e+00
1.2042095392e+00
1.2042147724e+00
1.2042208123e+00
1.2042277394e+00
1.2042356370e+00
1.2042446007e+00
1.2042547351e+00
1.2042661657e+00
1.2042790367e+00
1.2042935242e+00
1.2043098313e+00
1.2043281968e+00
1.2043488810e+00
1.2043721605e+00
1.2043982964e+00
1.2044275090e+00
1.2044599262e+00
1.2044955412e+00
1.2045341552e+00
1.2045753382e+00
1.2046183948e+00
1.2046623632e+00
1.2047060353e+00
1.2047480226e+00
1.2047868416e+00
1.2048210427e+00
1.2048493312e+00
1.2048707138e+00
1.2048845886e+00
1.2048908415e+00
1.2048898397e+00
1.2048824331e+00
1.2048698315e+00
1.2048535071e+00
1.2049793150e+00
1.1968110479e+00
1.1969367469e+00
1.1970881846e+00
1.1973086488e+00
1.1975916274e+00
1.1979288526e+00
1.1983108321e+00
1.1987271531e+00
1.1991671071e+00
1.1996199826e+00
1.2000756530e+00
1.2005247694e+00
1.2009592095e+00
1.2013721206e+00
1.2017581795e+00
1.2021134818e+00
1.2024356203e+00
1.2027234581e+00
1.2029770731e+00
1.2031974749e+00
1.2033864811e+00
1.2035464383e+00
1.2036800897e+00
1.2037903449e+00
1.2038801781e+00
1.2039524667e+00
1.2040099371e+00
1.2040550714e+00
1.2040900977e+00
1.2041169506e+00
1.2041372934e+00
1.2041525132e+00
1.2041637599e+00
1.2041719580e+00
1.2041778500e+00
1.2041820129e+00
1.2041848975e+00
1.2041868427e+00
1.2041881077e+00
1.2041888812e+00
1.2041893054e+00
1.2041894813e+00
1.2041894849e+00
1.2041893694e+00
1.2041891761e+00
1.2041889345e+00
1.2041886697e+00
1.2041884009e+00
1.2041881468e+00
1.2041879240e+00
1.2041877501e+00
1.2041876430e+00
1.2041876224e+00
1.2041877099e+00
1.2041879290e+00
1.2041883066e+00
1.2041888714e+00
1.2041896565e+00
1.2041906972e+00
1.2041920332e+00
1.2041937066e+00
1.2041957645e+00
1.2041982554e+00
1.2042012329e+00
1.2042047513e+00
1.2042088697e+00
1.2042136474e+00
1.2042191494e+00
1.2042254420e+00
1.2042326007e+00
1.2042407081e+00
1.2042498646e+00
1.2042601891e+00
1.2042718328e+00
1.2042849800e+00
1.2042998613e+00
1.2043167489e+00
1.2043359592e+00
1.2043578332e+00
1.2043827177e+00
1.2044109228e+00
1.2044426783e+00
1.2044780716e+00
1.2045169916e+00
1.2045590716e+00
1.2046036527e+00
1.2046497691e+00
1.2046961711e+00
1.2047413818e+00
1.2047837990e+00
1.2048218170e+00
1.2048539818e+00
1.2048791235e+00
1.2048964976e+00
1.2049058468e+00
1.2049074590e+00
1.2049021020e+00
1.2048909723e+00
1.2048754980e+00
1.2050080199e+00
1.1973986797e+00
1.1975185783e+00
1.1976581404e+00
1.1978612430e+00
1.1981218214e+00
1.1984323170e+00
1.1987839158e+00
1.1991671071e+00
1.1995719555e+00
1.1999886864e+00
1.2004079033e+00
1.2008210874e+00
1.2012206945e+00
1.2016004973e+00
1.2019555381e+00
1.2022822926e+00
1.2025784972e+00
1.2028431622e+00
1.2030763202e+00
1.2032789443e+00
1.2034526759e+00
1.2035997073e+00
1.2037225377e+00
1.2038238682e+00
1.2039064153e+00
1.2039728436e+00
1.2040256455e+00
1.2040671167e+00
1.2040992940e+00
1.2041239661e+00
1.2041426526e+00
1.2041566364e+00
1.2041669665e+00
1.2041744990e+00
1.2041799098e+00
1.2041837344e+00
1.2041863815e+00
1.2041881671e+00
1.2041893247e+00
1.2041900316e+00
1.2041904148e+00
1.2041905703e+00
1.2041905649e+00
1.2041904503e+00
1.2041902621e+00
1.2041900297e+00
1.2041897743e+00
1.2041895155e+00
1.2041892692e+00
1.2041890521e+00
1.2041888795e+00
1.2041887689e+00
1.2041887382e+00
1.2041888074e+00
1.2041889985e+00
1.2041893359e+00
1.2041898466e+00
1.2041905602e+00
1.2041915097e+00
1.2041927301e+00
1.2041942606e+00
1.2041961417e+00
1.2041984179e+00
1.2042011345e+00
1.2042043400e+00
1.2042080830e+00
1.2042124156e+00
1.2042173899e+00
1.2042230645e+00
1.2042295018e+00
1.2042367782e+00
1.2042449850e+00
1.2042542423e+00
1.2042647030e+00
1.2042765688e+00
1.2042900922e+00
1.2043055875e+00
1.2043234215e+00
1.2043440058e+00
1.2043677661e+00
1.2043951048e+00
1.2044263437e+00
1.2044616611e+00
1.2045010214e+00
1.2045441127e+00
1.2045902991e+00
1.2046386013e+00
1.2046877149e+00
1.2047360712e+00
1.2047819390e+00
1.2048235660e+00
1.2048593310e+00
1.2048879139e+00
1.2049084179e+00
1.2049204862e+00
1.2049243099e+00
1.2049206320e+00
1.2049106112e+00
1.2048957044e+00
1.2050340756e+00
1.1980040967e+00
1.1981178934e+00
1.1982451985e+00
1.1984303339e+00
1.1986678172e+00
1.1989506922e+00
1.1992709943e+00
1.1996199826e+00
1.1999886864e+00
1.2003681245e+00
1.2007498230e+00
1.2011259501e+00
1.2014897170e+00
1.2018353884e+00
1.2021585229e+00
1.2024558575e+00
1.2027253931e+00
1.2029661850e+00
1.2031783127e+00
1.2033626274e+00
1.2035206619e+00
1.2036543846e+00
1.2037660993e+00
1.2038582429e+00
1.2039333092e+00
1.2039937062e+00
1.2040417175e+00
1.2040794186e+00
1.2041086743e+00
1.2041311013e+00
1.2041480906e+00
1.2041608005e+00
1.2041701921e+00
1.2041770369e+00
1.2041819551e+00
1.2041854278e+00
1.2041878316e+00
1.2041894486e+00
1.2041904955e+00
1.2041911292e+00
1.2041914689e+00
1.2041915984e+00
1.2041915817e+00
1.2041914628e+00
1.2041912770e+00
1.2041910489e+00
1.2041907998e+00
1.2041905461e+00
1.2041903041e+00
1.2041900877e+00
1.2041899126e+00
1.2041897939e+00
1.2041897487e+00
1.2041897953e+00
1.2041899542e+00
1.2041902477e+00
1.2041907004e+00
1.2041913396e+00
1.2041921946e+00
1.2041932979e+00
1.2041946832e+00
1.2041963878e+00
1.2041984489e+00
1.2042009071e+00
1.2042038018e+00
1.2042071750e+00
1.2042110677e+00
1.2042155245e+00
1.2042205913e+00
1.2042263237e+00
1.2042327874e+00
1.2042400715e+00
1.2042482931e+00
1.2042576148e+00
1.2042682515e+00
1.2042804861e+00
1.2042946710e+00
1.2043112302e+00
1.2043306420e+00
1.2043534136e+00
1.2043800336e+00
1.2044109130e+00
1.2044463118e+00
1.2044862609e+00
1.2045304915e+00
1.2045783772e+00
1.2046289136e+00
1.2046807300e+00
1.2047321567e+00
1.2047813321e+00
1.2048263513e+00
1.2048654419e+00
1.2048971285e+00
1.2049203982e+00
1.2049347845e+00
1.2049404360e+00
1.2049380513e+00
1.2049288195e+00
1.2049141991e+00
1.2050576351e+00
1.1986136084e+00
1.1987211999e+00
1.1988361102e+00
1.1990031452e+00
1.1992173031e+00
1.1994723675e+00
1.1997610869e+00
1.2000756530e+00
1.2004079033e+00
1.2007498230e+00
1.2010936999e+00
1.2014325568e+00
1.2017602081e+00
1.2020715611e+00
1.2023625553e+00
1.2026303170e+00
1.2028729969e+00
1.2030897984e+00
1.2032807550e+00
1.2034466764e+00
1.2035889133e+00
1.2037092712e+00
1.2038098017e+00
1.2038927238e+00
1.2039602648e+00
1.2040146108e+00
1.2040578034e+00
1.2040917245e+00
1.2041180412e+00
1.2041382187e+00
1.2041534997e+00
1.2041649343e+00
1.2041733798e+00
1.2041795367e+00
1.2041839566e+00
1.2041870775e+00
1.2041892329e+00
1.2041906812e+00
1.2041916127e+00
1.2041921726e+00
1.2041924642e+00
1.2041925664e+00
1.2041925336e+00
1.2041924086e+00
1.2041922206e+00
1.2041919941e+00
1.2041917467e+00
1.2041914950e+00
1.2041912525e+00
1.2041910335e+00
1.2041908511e+00
1.2041907203e+00
1.2041906563e+00
1.2041906763e+00
1.2041907987e+00
1.2041910442e+00
1.2041914353e+00
1.2041919964e+00
1.2041927543e+00
1.2041937374e+00
1.2041949762e+00
1.2041965021e+00
1.2041983484e+00
1.2042005476e+00
1.2042031337e+00
1.2042061388e+00
1.2042095968e+00
1.2042135408e+00
1.2042180095e+00
1.2042230474e+00
1.2042287157e+00
1.2042350975e+00
1.2042423141e+00
1.2042505347e+00
1.2042599951e+00
1.2042710062e+00
1.2042839655e+00
1.2042993521e+00
1.2043177148e+00
1.2043396389e+00
1.2043656979e+00
1.2043963858e+00
1.2044320357e+00
1.2044727358e+00
1.2045182451e+00
1.2045679367e+00
1.2046207635e+00
1.2046752804e+00
1.2047297050e+00
1.2047820410e+00
1.2048302350e+00
1.2048723614e+00
1.2049068153e+00
1.2049324632e+00
1.2049487765e+00
1.2049558482e+00
1.2049543971e+00
1.2049456171e+00
1.2049310433e+00
1.2050787591e+00
1.1992147176e+00
1.1993161132e+00
1.1994187960e+00
1.1995679213e+00
1.1997590718e+00
1.1999866397e+00
1.2002442176e+00
1.2005247694e+00
1.2008210874e+00
1.2011259501e+00
1.2014325568e+00
1.2017346166e+00
1.2020266886e+00
1.2023041706e+00
1.2025635105e+00
1.2028020945e+00
1.2030183321e+00
1.2032114714e+00
1.2033815891e+00
1.2035293741e+00
1.2036560666e+00
1.2037632500e+00
1.2038527800e+00
1.2039266138e+00
1.2039867564e+00
1.2040351397e+00
1.2040735976e+00
1.2041037939e+00
1.2041272248e+00
1.2041451850e+00
1.2041587899e+00
1.2041689663e+00
1.2041764845e+00
1.2041819611e+00
1.2041858930e+00
1.2041886643e+00
1.2041905766e+00
1.2041918552e+00
1.2041926734e+00
1.2041931567e+00
1.2041934005e+00
1.2041934717e+00
1.2041934221e+00
1.2041932868e+00
1.2041930946e+00
1.2041928654e+00
1.2041926171e+00
1.2041923629e+00
1.2041921169e+00
1.2041918906e+00
1.2041916974e+00
1.2041915500e+00
1.2041914632e+00
1.2041914522e+00
1.2041915342e+00
1.2041917278e+00
1.2041920533e+00
1.2041925328e+00
1.2041931899e+00
1.2041940501e+00
1.2041951392e+00
1.2041964849e+00
1.2041981140e+00
1.2042000540e+00
1.2042023304e+00
1.2042049689e+00
1.2042079930e+00
1.2042114285e+00
1.2042153034e+00
1.2042196562e+00
1.2042245405e+00
1.2042300395e+00