# vtk DataFile Version 2.0
Blank
ASCII
DATASET STRUCTURED_GRID
DIMENSIONS 101 101 2
POINTS 20402 float
0.0000000000e+00 0.0000000000e+00 0.0000000000e+00
1.0000000000e-02 0.0000000000e+00 0.0000000000e+00
2.0000000000e-02 0.0000000000e+00 0.0000000000e+00
3.0000000000e-02 0.0000000000e+00 0.0000000000e+00
4.0000000000e-02 0.0000000000e+00 0.0000000000e+00
5.0000000000e-02 0.0000000000e+00 0.0000000000e+00
6.0000000000e-02 0.0000000000e+00 0.0000000000e+00
7.0000000000e-02 0.0000000000e+00 0.0000000000e+00
8.0000000000e-02 0.0000000000e+00 0.0000000000e+00
9.0000000000e-02 0.0000000000e+00 0.0000000000e+00
1.0000000000e-01 0.0000000000e+00 0.0000000000e+00
1.1000000000e-01 0.0000000000e+00 0.0000000000e+00
1.2000000000e-01 0.0000000000e+00 0.0000000000e+00
1.3000000000e-01 0.0000000000e+00 0.0000000000e+00
1.4000000000e-01 0.0000000000e+00 0.0000000000e+00
1.5000000000e-01 0.0000000000e+00 0.0000000000e+00
1.6000000000e-01 0.0000000000e+00 0.0000000000e+00
1.7000000000e-01 0.0000000000e+00 0.0000000000e+00
1.8000000000e-01 0.0000000000e+00 0.0000000000e+00
1.9000000000e-01 0.0000000000e+00 0.0000000000e+00
2.0000000000e-01 0.0000000000e+00 0.0000000000e+00
2.1000000000e-01 0.0000000000e+00 0.0000000000e+00
2.2000000000e-01 0.0000000000e+00 0.0000000000e+00
2.3000000000e-01 0.0000000000e+00 0.0000000000e+00
2.4000000000e-01 0.0000000000e+00 0.0000000000e+00
2.5000000000e-01 0.0000000000e+00 0.0000000000e+00
2.6000000000e-01 0.0000000000e+00 0.0000000000e+00
2.7000000000e-01 0.0000000000e+00 0.0000000000e+00
2.8000000000e-01 0.0000000000e+00 0.0000000000e+00
2.9000000000e-01 0.0000000000e+00 0.0000000000e+00
3.0000000000e-01 0.0000000000e+00 0.0000000000e+00
3.1000000000e-01 0.0000000000e+00 0.0000000000e+00
3.2000000000e-01 0.0000000000e+00 0.0000000000e+00
3.3000000000e-01 0.0000000000e+00 0.0000000000e+00
3.4000000000e-01 0.0000000000e+00 0.0000000000e+00
3.5000000000e-01 0.0000000000e+00 0.0000000000e+00
3.6000000000e-01 0.0000000000e+00 0.0000000000e+00
3.7000000000e-01 0.0000000000e+00 0.0000000000e+00
3.8000000000e-01 0.0000000000e+00 0.0000000000e+00
3.9000000000e-01 0.0000000000e+00 0.0000000000e+00
4.0000000000e-01 0.0000000000e+00 0.0000000000e+00
4.1000000000e-01 0.0000000000e+00 0.0000000000e+00
4.2000000000e-01 0.0000000000e+00 0.0000000000e+00
4.3000000000e-01 0.0000000000e+00 0.0000000000e+00
4.4000000000e-01 0.0000000000e+00 0.0000000000e+00
4.5000000000e-01 0.0000000000e+00 0.0000000000e+00
4.6000000000e-01 0.0000000000e+00 0.0000000000e+00
4.7000000000e-01 0.0000000000e+00 0.0000000000e+00
4.8000000000e-01 0.0000000000e+00 0.0000000000e+00
4.9000000000e-01 0.0000000000e+00 0.0000000000e+00
5.0000000000e-01 0.0000000000e+00 0.0000000000e+00
5.1000000000e-01 0.0000000000e+00 0.0000000000e+00
5.2000000000e-01 0.0000000000e+00 0.0000000000e+00
5.3000000000e-01 0.0000000000e+00 0.0000000000e+00
5.4000000000e-01 0.0000000000e+00 0.0000000000e+00
5.5000000000e-01 0.0000000000e+00 0.0000000000e+00
5.6000000000e-01 0.0000000000e+00 0.0000000000e+00
5.7000000000e-01 0.0000000000e+00 0.0000000000e+00
5.8000000000e-01 0.0000000000e+00 0.0000000000e+00
5.9000000000e-01 0.0000000000e+00 0.0000000000e+00
6.0000000000e-01 0.0000000000e+00 0.0000000000e+00
6.1000000000e-01 0.0000000000e+00 0.0000000000e+00
6.2000000000e-01 0.0000000000e+00 0.0000000000e+00
6.3000000000e-01 0.0000000000e+00 0.0000000000e+00
6.4000000000e-01 0.0000000000e+00 0.0000000000e+00
6.5000000000e-01 0.0000000000e+00 0.0000000000e+00
6.6000000000e-01 0.0000000000e+00 0.0000000000e+00
6.7000000000e-01 0.0000000000e+00 0.0000000000e+00
6.8000000000e-01 0.0000000000e+00 0.0000000000e+00
6.9000000000e-01 0.0000000000e+00 0.0000000000e+00
7.0000000000e-01 0.0000000000e+00 0.0000000000e+00
7.1000000000e-01 0.0000000000e+00 0.0000000000e+00
7.2000000000e-01 0.0000000000e+00 0.0000000000e+00
7.3000000000e-01 0.0000000000e+00 0.0000000000e+00
7.4000000000e-01 0.0000000000e+00 0.0000000000e+00
7.5000000000e-01 0.0000000000e+00 0.0000000000e+00
7.6000000000e-01 0.0000000000e+00 0.0000000000e+00
7.7000000000e-01 0.0000000000e+00 0.0000000000e+00
7.8000000000e-01 0.0000000000e+00 0.0000000000e+00
7.9000000000e-01 0.0000000000e+00 0.0000000000e+00
8.0000000000e-01 0.0000000000e+00 0.0000000000e+00
8.1000000000e-01 0.0000000000e+00 0.0000000000e+00
8.2000000000e-01 0.0000000000e+00 0.0000000000e+00
8.3000000000e-01 0.0000000000e+00 0.0000000000e+00
8.4000000000e-01 0.0000000000e+00 0.0000000000e+00
8.5000000000e-01 0.0000000000e+00 0.0000000000e+00
8.6000000000e-01 0.0000000000e+00 0.0000000000e+00
8.7000000000e-01 0.0000000000e+00 0.0000000000e+00
8.8000000000e-01 0.0000000000e+00 0.0000000000e+00
8.9000000000e-01 0.0000000000e+00 0.0000000000e+00
9.0000000000e-01 0.0000000000e+00 0.0000000000e+00
9.1000000000e-01 0.0000000000e+00 0.0000000000e+00
9.2000000000e-01 0.0000000000e+00 0.0000000000e+00
9.3000000000e-01 0.0000000000e+00 0.0000000000e+00
9.4000000000e-01 0.0000000000e+00 0.0000000000e+00
9.5000000000e-01 0.0000000000e+00 0.0000000000e+00
9.6000000000e-01 0.0000000000e+00 0.0000000000e+00
9.7000000000e-01 0.0000000000e+00 0.0000000000e+00
9.8000000000e-01 0.0000000000e+00 0.0000000000e+00
9.9000000000e-01 0.0000000000e+00 0.0000000000e+00
1.0000000000e+00 0.0000000000e+00 0.0000000000e+00
0.0000000000e+00 1.0000000000e-02 0.0000000000e+00
1.0000000000e-02 1.0000000000e-02 0.0000000000e+00
2.0000000000e-02 1.0000000000e-02 0.0000000000e+00
3.0000000000e-02 1.0000000000e-02 0.0000000000e+00
4.0000000000e-02 1.0000000000e-02 0.0000000000e+00
5.0000000000e-02 1.0000000000e-02 0.0000000000e+00
6.0000000000e-02 1.0000000000e-02 0.0000000000e+00
7.0000000000e-02 1.0000000000e-02 0.0000000000e+00
8.0000000000e-02 1.0000000000e-02 0.0000000000e+00
9.0000000000e-02 1.0000000000e-02 0.0000000000e+00
1.0000000000e-01 1.0000000000e-02 0.0000000000e+00
1.1000000000e-01 1.0000000000e-02 0.0000000000e+00
1.2000000000e-01 1.0000000000e-02 0.0000000000e+00
1.3000000000e-01 1.0000000000e-02 0.0000000000e+00
1.4000000000e-01 1.0000000000e-02 0.0000000000e+00
1.5000000000e-01 1.0000000000e-02 0.0000000000e+00
1.6000000000e-01 1.0000000000e-02 0.0000000000e+00
1.7000000000e-01 1.0000000000e-02 0.0000000000e+00
1.8000000000e-01 1.0000000000e-02 0.0000000000e+00
1.9000000000e-01 1.0000000000e-02 0.0000000000e+00
2.0000000000e-01 1.0000000000e-02 0.0000000000e+00
2.1000000000e-01 1.0000000000e-02 0.0000000000e+00
2.2000000000e-01 1.0000000000e-02 0.0000000000e+00
2.3000000000e-01 1.0000000000e-02 0.0000000000e+00
2.4000000000e-01 1.0000000000e-02 0.0000000000e+00
2.5000000000e-01 1.0000000000e-02 0.0000000000e+00
2.6000000000e-01 1.0000000000e-02 0.0000000000e+00
2.7000000000e-01 1.0000000000e-02 0.0000000000e+00
2.8000000000e-01 1.0000000000e-02 0.0000000000e+00
2.9000000000e-01 1.0000000000e-02 0.0000000000e+00
3.0000000000e-01 1.0000000000e-02 0.0000000000e+00
3.1000000000e-01 1.0000000000e-02 0.0000000000e+00
3.2000000000e-01 1.0000000000e-02 0.0000000000e+00
3.3000000000e-01 1.0000000000e-02 0.0000000000e+00
3.4000000000e-01 1.0000000000e-02 0.0000000000e+00
3.5000000000e-01 1.0000000000e-02 0.0000000000e+00
3.6000000000e-01 1.0000000000e-02 0.0000000000e+00
3.7000000000e-01 1.0000000000e-02 0.0000000000e+00
3.8000000000e-01 1.0000000000e-02 0.0000000000e+00
3.9000000000e-01 1.0000000000e-02 0.0000000000e+00
4.0000000000e-01 1.0000000000e-02 0.0000000000e+00
4.1000000000e-01 1.0000000000e-02 0.0000000000e+00
4.2000000000e-01 1.0000000000e-02 0.0000000000e+00
4.3000000000e-01 1.0000000000e-02 0.0000000000e+00
4.4000000000e-01 1.0000000000e-02 0.0000000000e+00
4.5000000000e-01 1.0000000000e-02 0.0000000000e+00
4.6000000000e-01 1.0000000000e-02 0.0000000000e+00
4.7000000000e-01 1.0000000000e-02 0.0000000000e+00
4.8000000000e-01 1.0000000000e-02 0.0000000000e+00
4.9000000000e-01 1.0000000000e-02 0.0000000000e+00
5.0000000000e-01 1.0000000000e-02 0.0000000000e+00
5.1000000000e-01 1.0000000000e-02 0.0000000000e+00
5.2000000000e-01 1.0000000000e-02 0.0000000000e+00
5.3000000000e-01 1.0000000000e-02 0.0000000000e+00
5.4000000000e-01 1.0000000000e-02 0.0000000000e+00
5.5000000000e-01 1.0000000000e-02 0.0000000000e+00
5.6000000000e-01 1.0000000000e-02 0.0000000000e+00
5.7000000000e-01 1.0000000000e-02 0.0000000000e+00
5.8000000000e-01 1.0000000000e-02 0.0000000000e+00
5.9000000000e-01 1.0000000000e-02 0.0000000000e+00
6.0000000000e-01 1.0000000000e-02 0.0000000000e+00
6.1000000000e-01 1.0000000000e-02 0.0000000000e+00
6.2000000000e-01 1.0000000000e-02 0.0000000000e+00
6.3000000000e-01 1.0000000000e-02 0.0000000000e+00
6.4000000000e-01 1.0000000000e-02 0.0000000000e+00
6.5000000000e-01 1.0000000000e-02 0.0000000000e+00
6.6000000000e-01 1.0000000000e-02 0.0000000000e+00
6.7000000000e-01 1.0000000000e-02 0.0000000000e+00
6.8000000000e-01 1.0000000000e-02 0.0000000000e+00
6.9000000000e-01 1.0000000000e-02 0.0000000000e+00
7.0000000000e-01 1.0000000000e-02 0.0000000000e+00
7.1000000000e-01 1.0000000000e-02 0.0000000000e+00
7.2000000000e-01 1.0000000000e-02 0.0000000000e+00
7.3000000000e-01 1.0000000000e-02 0.0000000000e+00
7.4000000000e-01 1.0000000000e-02 0.0000000000e+00
7.5000000000e-01 1.0000000000e-02 0.0000000000e+00
7.6000000000e-01 1.0000000000e-02 0.0000000000e+00
7.7000000000e-01 1.0000000000e-02 0.0000000000e+00
7.8000000000e-01 1.0000000000e-02 0.0000000000e+00
7.9000000000e-01 1.0000000000e-02 0.0000000000e+00
8.0000000000e-01 1.0000000000e-02 0.0000000000e+00
8.1000000000e-01 1.0000000000e-02 0.0000000000e+00
8.2000000000e-01 1.0000000000e-02 0.0000000000e+00
8.3000000000e-01 1.0000000000e-02 0.0000000000e+00
8.4000000000e-01 1.0000000000e-02 0.0000000000e+00
8.5000000000e-01 1.0000000000e-02 0.0000000000e+00
8.6000000000e-01 1.0000000000e-02 0.0000000000e+00
8.7000000000e-01 1.0000000000e-02 0.0000000000e+00
8.8000000000e-01 1.0000000000e-02 0.0000000000e+00
8.9000000000e-01 1.0000000000e-02 0.0000000000e+00
9.0000000000e-01 1.0000000000e-02 0.0000000000e+00
9.1000000000e-01 1.0000000000e-02 0.0000000000e+00
9.2000000000e-01 1.0000000000e-02 0.0000000000e+00
[...]
CELL_DATA 10000

SCALARS massDensity float
LOOKUP_TABLE default
1.2014510591e+00
1.2014627250e+00
1.2014788985e+00
1.2015036990e+00
1.2015368494e+00
1.2015780076e+00
1.2016267741e+00
1.2016826965e+00
1.2017452734e+00
1.2018139597e+00
1.2018881729e+00
1.2019672996e+00
1.2020507037e+00
1.2021377337e+00
1.2022277310e+00
1.2023200375e+00
1.2024140033e+00
1.2025089940e+00
1.2026043971e+00
1.2026996283e+00
1.2027941369e+00
1.2028874098e+00
1.2029789761e+00
1.2030684095e+00
1.2031553302e+00
1.2032394070e+00
1.2033203569e+00
1.2033979453e+00
1.2034719850e+00
1.2035423347e+00
1.2036088966e+00
1.2036716145e+00
1.2037304700e+00
1.2037854801e+00
1.2038366931e+00
1.2038841856e+00
1.2039280585e+00
1.2039684337e+00
1.2040054502e+00
1.2040392611e+00
1.2040700301e+00
1.2040979287e+00
1.2041231332e+00
1.2041458221e+00
1.2041661743e+00
1.2041843667e+00
1.2042005725e+00
1.2042149601e+00
1.2042276914e+00
1.2042389212e+00
1.2042487964e+00
1.2042574556e+00
1.2042650282e+00
1.2042716349e+00
1.2042773874e+00
1.2042823882e+00
1.2042867312e+00
1.2042905015e+00
1.2042937762e+00
1.2042966245e+00
1.2042991079e+00
1.2043012810e+00
1.2043031918e+00
1.2043048822e+00
1.2043063883e+00
1.2043077411e+00
1.2043089669e+00
1.2043100874e+00
1.2043111208e+00
1.2043120818e+00
1.2043129820e+00
1.2043138306e+00
1.2043146344e+00
1.2043153985e+00
1.2043161267e+00
1.2043168212e+00
1.2043174839e+00
1.2043181157e+00
1.2043187172e+00
1.2043192890e+00
1.2043198316e+00
1.2043203457e+00
1.2043208319e+00
1.2043212914e+00
1.2043217253e+00
1.2043221349e+00
1.2043225217e+00
1.2043228868e+00
1.2043232311e+00
1.2043235548e+00
1.2043238575e+00
1.2043241373e+00
1.2043243911e+00
1.2043246136e+00
1.2043247978e+00
1.2043249335e+00
1.2043250080e+00
1.2043250050e+00
1.2043249062e+00
1.2043267400e+00
1.2014627250e+00
1.2014752675e+00
1.2014918670e+00
1.2015169190e+00
1.2015501956e+00
1.2015913882e+00
1.2016401195e+00
1.2016959515e+00
1.2017583929e+00
1.2018269056e+00
1.2019009122e+00
1.2019798038e+00
1.2020629478e+00
1.2021496957e+00
1.2022393919e+00
1.2023313809e+00
1.2024250155e+00
1.2025196635e+00
1.2026147150e+00
1.2027095878e+00
1.2028037334e+00
1.2028966410e+00
1.2029878415e+00
1.2030769104e+00
1.2031634700e+00
1.2032471905e+00
1.2033277907e+00
1.2034050371e+00
1.2034787441e+00
1.2035487714e+00
1.2036150224e+00
1.2036774415e+00
1.2037360115e+00
1.2037907496e+00
1.2038417051e+00
1.2038889548e+00
1.2039325999e+00
1.2039727625e+00
1.2040095817e+00
1.2040432106e+00
1.2040738126e+00
1.2041015590e+00
1.2041266255e+00
1.2041491904e+00
1.2041694317e+00
1.2041875255e+00
1.2042036443e+00
1.2042179553e+00
1.2042306195e+00
1.2042417905e+00
1.2042516139e+00
1.2042602267e+00
1.2042677573e+00
1.2042743248e+00
1.2042800392e+00
1.2042850018e+00
1.2042893049e+00
1.2042930323e+00
1.2042962595e+00
1.2042990546e+00
1.2043014778e+00
1.2043035827e+00
1.2043054165e+00
1.2043070202e+00
1.2043084296e+00
1.2043096751e+00
1.2043107830e+00
1.2043117751e+00
1.2043126700e+00
1.2043134827e+00
1.2043142255e+00
1.2043149086e+00
1.2043155397e+00
1.2043161250e+00
1.2043166695e+00
1.2043171768e+00
1.2043176499e+00
1.2043180910e+00
1.2043185020e+00
1.2043188845e+00
1.2043192401e+00
1.2043195704e+00
1.2043198768e+00
1.2043201611e+00
1.2043204250e+00
1.2043206702e+00
1.2043208987e+00
1.2043211121e+00
1.2043213119e+00
1.2043214993e+00
1.2043216749e+00
1.2043218389e+00
1.2043219907e+00
1.2043221292e+00
1.2043222524e+00
1.2043223584e+00
1.2043224453e+00
1.2043225136e+00
1.2043225700e+00
1.2043246724e+00
1.2014788985e+00
1.2014918670e+00
1.2015085422e+00
1.2015335627e+00
1.2015667190e+00
1.2016077178e+00
1.2016561932e+00
1.2017117159e+00
1.2017738012e+00
1.2018419167e+00
1.2019154899e+00
1.2019939166e+00
1.2020765682e+00
1.2021628007e+00
1.2022519623e+00
1.2023434018e+00
1.2024364756e+00
1.2025305557e+00
1.2026250355e+00
1.2027193366e+00
1.2028129136e+00
1.2029052590e+00
1.2029959065e+00
1.2030844345e+00
1.2031704674e+00
1.2032536776e+00
1.2033337856e+00
1.2034105598e+00
1.2034838155e+00
1.2035534137e+00
1.2036192582e+00
1.2036812944e+00
1.2037395048e+00
1.2037939072e+00
1.2038445502e+00
1.2038915107e+00
1.2039348893e+00
1.2039748074e+00
1.2040114035e+00
1.2040448297e+00
1.2040752487e+00
1.2041028306e+00
1.2041277503e+00
1.2041501848e+00
1.2041703113e+00
1.2041883047e+00
1.2042043365e+00
1.2042185728e+00
1.2042311734e+00
1.2042422911e+00
1.2042520704e+00
1.2042606474e+00
1.2042681495e+00
1.2042746949e+00
1.2042803930e+00
1.2042853439e+00
1.2042896393e+00
1.2042933622e+00
1.2042965875e+00
1.2042993823e+00
1.2043018064e+00
1.2043039128e+00
1.2043057480e+00
1.2043073526e+00
1.2043087617e+00
1.2043100055e+00
1.2043111098e+00
1.2043120961e+00
1.2043129826e+00
1.2043137843e+00
1.2043145133e+00
1.2043151796e+00
1.2043157911e+00
1.2043163539e+00
1.2043168730e+00
1.2043173524e+00
1.2043177951e+00
1.2043182036e+00
1.2043185801e+00
1.2043189265e+00
1.2043192447e+00
1.2043195365e+00
1.2043198039e+00
1.2043200489e+00
1.2043202735e+00
1.2043204799e+00
1.2043206702e+00
1.2043208467e+00
1.2043210112e+00
1.2043211656e+00
1.2043213113e+00
1.2043214495e+00
1.2043215810e+00
1.2043217064e+00
1.2043218263e+00
1.2043219419e+00
1.2043220561e+00
1.2043221751e+00
1.2043223126e+00
1.2043244969e+00
1.2015036990e+00
1.2015169190e+00
1.2015335627e+00
1.2015584510e+00
1.2015913791e+00
1.2016320609e+00
1.2016801385e+00
1.2017351902e+00
1.2017967386e+00
1.2018642578e+00
1.2019371821e+00
1.2020149131e+00
1.2020968290e+00
1.2021822914e+00
1.2022706551e+00
1.2023612743e+00
1.2024535120e+00
1.2025467451e+00
1.2026403733e+00
1.2027338229e+00
1.2028265538e+00
1.2029180629e+00
1.2030078886e+00
1.2030956125e+00
1.2031808633e+00
1.2032633159e+00
1.2033426939e+00
1.2034187675e+00
1.2034913543e+00
1.2035603162e+00
1.2036255586e+00
1.2036870269e+00
1.2037447045e+00
1.2037986089e+00
1.2038487886e+00
1.2038953198e+00
1.2039383023e+00
1.2039778567e+00
1.2040141202e+00
1.2040472436e+00
1.2040773884e+00
1.2041047231e+00
1.2041294210e+00
1.2041516578e+00
1.2041716088e+00
1.2041894476e+00
1.2042053439e+00
1.2042194623e+00
1.2042319613e+00
1.2042429920e+00
1.2042526976e+00
1.2042612129e+00
1.2042686638e+00
1.2042751675e+00
1.2042808321e+00
1.2042857566e+00
1.2042900317e+00
1.2042937392e+00
1.2042969533e+00
1.2042997402e+00
1.2043021588e+00
1.2043042613e+00
1.2043060934e+00
1.2043076953e+00
1.2043091013e+00
1.2043103411e+00
1.2043114400e+00
1.2043124193e+00
1.2043132967e+00
1.2043140869e+00
1.2043148019e+00
1.2043154516e+00
1.2043160436e+00
1.2043165843e+00
1.2043170787e+00
1.2043175309e+00
1.2043179439e+00
1.2043183208e+00
1.2043186637e+00
1.2043189751e+00
1.2043192570e+00
1.2043195117e+00
1.2043197413e+00
1.2043199483e+00
1.2043201350e+00
1.2043203041e+00
1.2043204582e+00
1.2043205997e+00
1.2043207311e+00
1.2043208550e+00
1.2043209733e+00
1.2043210883e+00
1.2043212018e+00
1.2043213159e+00
1.2043214327e+00
1.2043215556e+00
1.2043216893e+00
1.2043218419e+00
1.2043220266e+00
1.2043242039e+00
1.2015368494e+00
1.2015501956e+00
1.2015667190e+00
1.2015913791e+00
1.2016239704e+00
1.2016642110e+00
1.2017117488e+00
1.2017661696e+00
1.2018270029e+00
1.2018937309e+00
1.2019657951e+00
1.2020426058e+00
1.2021235482e+00
1.2022079929e+00
1.2022953019e+00
1.2023848379e+00
1.2024759709e+00
1.2025680862e+00
1.2026605900e+00
1.2027529163e+00
1.2028445310e+00
1.2029349375e+00
1.2030236793e+00
1.2031103440e+00
1.2031945639e+00
1.2032760188e+00
1.2033544351e+00
1.2034295865e+00
1.2035012923e+00
1.2035694169e+00
1.2036338664e+00
1.2036945876e+00
1.2037515638e+00
1.2038048127e+00
1.2038543823e+00
1.2039003479e+00
1.2039428084e+00
1.2039818831e+00
1.2040177076e+00
1.2040504311e+00
1.2040802129e+00
1.2041072199e+00
1.2041316234e+00
1.2041535968e+00
1.2041733134e+00
1.2041909447e+00
1.2042066584e+00
1.2042206172e+00
1.2042329774e+00
1.2042438884e+00
1.2042534914e+00
1.2042619197e+00
1.2042692974e+00
1.2042757402e+00
1.2042813546e+00
1.2042862384e+00
1.2042904808e+00
1.2042941625e+00
1.2042973564e+00
1.2043001278e+00
1.2043025344e+00
1.2043046277e+00
1.2043064525e+00
1.2043080481e+00
1.2043094481e+00
1.2043106818e+00
1.2043117737e+00
1.2043127448e+00
1.2043136122e+00
1.2043143905e+00
1.2043150913e+00
1.2043157243e+00
1.2043162972e+00
1.2043168163e+00
1.2043172866e+00
1.2043177122e+00
1.2043180965e+00
1.2043184426e+00
1.2043187530e+00
1.2043190303e+00
1.2043192770e+00
1.2043194956e+00
1.2043196887e+00
1.2043198590e+00
1.2043200093e+00
1.2043201426e+00
1.2043202619e+00
1.2043203701e+00
1.2043204703e+00
1.2043205653e+00
1.2043206581e+00
1.2043207514e+00
1.2043208480e+00
1.2043209509e+00
1.2043210634e+00
1.2043211897e+00
1.2043213352e+00
1.2043215077e+00
1.2043217177e+00
1.2043238367e+00
1.2015780076e+00
1.2015913882e+00
1.2016077178e+00
1.2016320609e+00
1.2016642110e+00
1.2017038890e+00
1.2017507487e+00
1.2018043822e+00
1.2018643275e+00
1.2019300748e+00
1.2020010753e+00
1.2020767479e+00
1.2021564882e+00
1.2022396757e+00
1.2023256829e+00
1.2024138815e+00
1.2025036518e+00
1.2025943878e+00
1.2026855052e+00
1.2027764458e+00
1.2028666845e+00
1.2029557314e+00
1.2030431377e+00
1.2031284966e+00
1.2032114468e+00
1.2032916722e+00
1.2033689042e+00
1.2034429195e+00
1.2035135407e+00
1.2035806340e+00
1.2036441076e+00
1.2037039086e+00
1.2037600213e+00
1.2038124629e+00
1.2038612811e+00
1.2039065500e+00
1.2039483675e+00
1.2039868508e+00
1.2040221339e+00
1.2040543637e+00
1.2040836974e+00
1.2041102993e+00
1.2041343382e+00
1.2041559850e+00
1.2041754106e+00
1.2041927836e+00
1.2042082694e+00
1.2042220282e+00
1.2042342139e+00
1.2042449736e+00
1.2042544463e+00
1.2042627632e+00
1.2042700465e+00
1.2042764098e+00
1.2042819580e+00
1.2042867872e+00
1.2042909849e+00
1.2042946306e+00
1.2042977957e+00
1.2043005442e+00
1.2043029328e+00
1.2043050118e+00
1.2043068250e+00
1.2043084108e+00
1.2043098022e+00
1.2043110276e+00
1.2043121109e+00
1.2043130725e+00
1.2043139292e+00
1.2043146951e+00
1.2043153815e+00
1.2043159980e+00
1.2043165521e+00
1.2043170499e+00
1.2043174967e+00
1.2043178964e+00
1.2043182528e+00
1.2043185690e+00
1.2043188478e+00
1.2043190921e+00
1.2043193047e+00
1.2043194883e+00
1.2043196460e+00
1.2043197809e+00
1.2043198960e+00
1.2043199948e+00
1.2043200806e+00
1.2043201569e+00
1.2043202271e+00
1.2043202947e+00
1.2043203631e+00
1.2043204355e+00
1.2043205156e+00
1.2043206068e+00
1.2043207130e+00
1.2043208389e+00
1.2043209896e+00
1.2043211720e+00
1.2043213941e+00
1.2043234264e+00
1.2016267741e+00
1.2016401195e+00
1.2016561932e+00
1.2016801385e+00
1.2017117488e+00
1.2017507487e+00
1.2017967970e+00
1.2018494936e+00
1.2019083846e+00
1.2019729703e+00
1.2020427115e+00
1.2021170386e+00
1.2021953575e+00
1.2022770599e+00
1.2023615289e+00
1.2024481485e+00
1.2025363093e+00
1.2026254171e+00
1.2027148974e+00
1.2028042030e+00
1.2028928173e+00
1.2029802604e+00
1.2030660907e+00
1.2031499095e+00
1.2032313615e+00
1.2033101373e+00
1.2033859723e+00
1.2034586482e+00
1.2035279904e+00
1.2035938680e+00
1.2036561906e+00
1.2037149071e+00
1.2037700015e+00
1.2038214915e+00
1.2038694236e+00
1.2039138711e+00
1.2039549300e+00
1.2039927158e+00
1.2040273598e+00
1.2040590069e+00
1.2040878112e+00
1.2041139343e+00
1.2041375419e+00
1.2041588020e+00
1.2041778824e+00
1.2041949488e+00
1.2042101635e+00
1.2042236839e+00
1.2042356611e+00
1.2042462394e+00
1.2042555554e+00
1.2042637376e+00
1.2042709062e+00
1.2042771723e+00
1.2042826390e+00
1.2042874003e+00
1.2042915420e+00
1.2042951420e+00
1.2042982700e+00
1.2043009886e+00
1.2043033532e+00
1.2043054129e+00
1.2043072105e+00
1.2043087833e+00
1.2043101635e+00
1.2043113784e+00
1.2043124516e+00
1.2043134026e+00
1.2043142478e+00
1.2043150008e+00
1.2043156727e+00
1.2043162727e+00
1.2043168082e+00
1.2043172853e+00
1.2043177090e+00
1.2043180836e+00
1.2043184128e+00
1.2043187000e+00
1.2043189481e+00
1.2043191604e+00
1.2043193398e+00
1.2043194896e+00
1.2043196130e+00
1.2043197134e+00
1.2043197945e+00
1.2043198599e+00
1.2043199134e+00
1.2043199590e+00
1.2043200003e+00
1.2043200414e+00
1.2043200860e+00
1.2043201380e+00
1.2043202013e+00
1.2043202799e+00
1.2043203779e+00
1.2043204999e+00
1.2043206509e+00
1.2043208365e+00
1.2043210627e+00
1.2043229933e+00
1.2016826965e+00
1.2016959515e+00
1.2017117159e+00
1.2017351902e+00
1.2017661696e+00
1.2018043822e+00
1.2018494936e+00
1.2019011112e+00
1.2019587910e+00
1.2020220432e+00
1.2020903409e+00
1.2021631256e+00
1.2022398169e+00
1.2023198182e+00
1.2024025266e+00
1.2024873382e+00
1.2025736575e+00
1.2026609016e+00
1.2027485093e+00
1.2028359439e+00
1.2029227006e+00
1.2030083087e+00
1.2030923369e+00
1.2031743942e+00
1.2032541335e+00
1.2033312514e+00
1.2034054897e+00
1.2034766340e+00
1.2035445143e+00
1.2036090020e+00
1.2036700094e+00
1.2037274859e+00
1.2037814168e+00
1.2038318188e+00
1.2038787382e+00
1.2039222466e+00
1.2039624383e+00
1.2039994263e+00
1.2040333397e+00
1.2040643200e+00
1.2040925184e+00
1.2041180932e+00
1.2041412068e+00
1.2041620235e+00
1.2041807078e+00
1.2041974220e+00
1.2042123251e+00
1.2042255708e+00
1.2042373074e+00
1.2042476760e+00
1.2042568103e+00
1.2042648361e+00
1.2042718707e+00
1.2042780230e+00
1.2042833937e+00
1.2042880746e+00
1.2042921496e+00
1.2042956945e+00
1.2042987776e+00
1.2043014596e+00
1.2043037948e+00
1.2043058306e+00
1.2043076087e+00
1.2043091654e+00
1.2043105317e+00
1.2043117344e+00
1.2043127959e+00
1.2043137352e+00
1.2043145682e+00
1.2043153079e+00
1.2043159651e+00
1.2043165487e+00
1.2043170659e+00
1.2043175226e+00
1.2043179238e+00
1.2043182739e+00
1.2043185767e+00
1.2043188356e+00
1.2043190539e+00
1.2043192351e+00
1.2043193823e+00
1.2043194991e+00
1.2043195892e+00
1.2043196562e+00
1.2043197043e+00
1.2043197373e+00
1.2043197595e+00
1.2043197751e+00
1.2043197884e+00
1.2043198036e+00
1.2043198249e+00
1.2043198566e+00
1.2043199028e+00
1.2043199677e+00
1.2043200557e+00
1.2043201712e+00
1.2043203188e+00
1.2043205031e+00
1.2043207289e+00
1.2043225501e+00
1.2017452734e+00
1.2017583929e+00
1.2017738012e+00
1.2017967386e+00
1.2018270029e+00
1.2018643275e+00
1.2019083846e+00
1.2019587910e+00
1.2020151123e+00
1.2020768714e+00
1.2021435527e+00
1.2022146121e+00
1.2022894822e+00
1.2023675819e+00
1.2024483215e+00
1.2025311127e+00
1.2026153731e+00
1.2027005351e+00
1.2027860497e+00
1.2028713943e+00
1.2029560751e+00
1.2030396338e+00
1.2031216486e+00
1.2032017388e+00
1.2032795649e+00
1.2033548317e+00
1.2034272865e+00
1.2034967210e+00
1.2035629687e+00
1.2036259050e+00
1.2036854436e+00
1.2037415361e+00
1.2037941676e+00
1.2038433553e+00
1.2038891439e+00
1.2039316039e+00
1.2039708271e+00
1.2040069244e+00
1.2040400215e+00
1.2040702570e+00
1.2040977783e+00
1.2041227403e+00
1.2041453013e+00
1.2041656221e+00
1.2041838630e+00
1.2042001827e+00
1.2042147361e+00
1.2042276736e+00
1.2042391397e+00
1.2042492723e+00
1.2042582017e+00
1.2042660506e+00
1.2042729334e+00
1.2042789564e+00
1.2042842176e+00
1.2042888064e+00
1.2042928046e+00
1.2042962860e+00
1.2042993167e+00
1.2043019561e+00
1.2043042564e+00
1.2043062640e+00
1.2043080191e+00
1.2043095567e+00
1.2043109069e+00
1.2043120953e+00
1.2043131438e+00
1.2043140704e+00
1.2043148905e+00
1.2043156166e+00
1.2043162589e+00
1.2043168261e+00
1.2043173252e+00
1.2043177619e+00
1.2043181412e+00
1.2043184675e+00
1.2043187445e+00
1.2043189759e+00
1.2043191652e+00
1.2043193161e+00
1.2043194320e+00
1.2043195168e+00
1.2043195744e+00
1.2043196090e+00
1.2043196248e+00
1.2043196263e+00
1.2043196180e+00
1.2043196044e+00
1.2043195902e+00
1.2043195800e+00
1.2043195782e+00
1.2043195894e+00
1.2043196180e+00
1.2043196684e+00
1.2043197449e+00
1.2043198518e+00
1.2043199933e+00
1.2043201735e+00
1.2043203959e+00
1.2043221044e+00
1.2018139597e+00
1.2018269056e+00
1.2018419167e+00
1.2018642578e+00
1.2018937309e+00
1.2019300748e+00
1.2019729703e+00
1.2020220432e+00
1.2020768714e+00
1.2021369890e+00
1.2022018956e+00
1.2022710604e+00
1.2023439323e+00
1.2024199446e+00
1.2024985247e+00
1.2025790990e+00
1.2026611018e+00
1.2027439797e+00
1.2028271996e+00
1.2029102518e+00
1.2029926571e+00
1.2030739684e+00
1.2031537764e+00
1.2032317097e+00
1.2033074392e+00
1.2033806765e+00
1.2034511771e+00
1.2035187374e+00
1.2035831963e+00
1.2036444320e+00
1.2037023615e+00
1.2037569371e+00
1.2038081452e+00
1.2038560019e+00
1.2039005516e+00
1.2039418626e+00
1.2039800248e+00
1.2040151457e+00
1.2040473483e+00
1.2040767671e+00
1.2041035463e+00
1.2041278360e+00
1.2041497910e+00
1.2041695674e+00
1.2041873215e+00
1.2042032077e+00
1.2042173768e+00
1.2042299752e+00
1.2042411436e+00
1.2042510158e+00
1.2042597190e+00
1.2042673723e+00
1.2042740870e+00
1.2042799664e+00
1.2042851056e+00
1.2042895917e+00
1.2042935039e+00
1.2042969137e+00
1.2042998854e+00
1.2043024763e+00
1.2043047371e+00
1.2043067124e+00
1.2043084411e+00
1.2043099569e+00
1.2043112888e+00
1.2043124613e+00
1.2043134954e+00
1.2043144085e+00
1.2043152150e+00
1.2043159270e+00
1.2043165544e+00
1.2043171053e+00
1.2043175865e+00
1.2043180036e+00
1.2043183615e+00
1.2043186644e+00
1.2043189163e+00
1.2043191210e+00
1.2043192821e+00
1.2043194033e+00
1.2043194887e+00
1.2043195423e+00
1.2043195683e+00
1.2043195712e+00
1.2043195556e+00
1.2043195262e+00
1.2043194880e+00
1.2043194459e+00
1.2043194047e+00
1.2043193693e+00
1.2043193445e+00
1.2043193351e+00
1.2043193457e+00
1.2043193807e+00
1.2043194444e+00
1.2043195411e+00
1.2043196747e+00
1.2043198487e+00
1.2043200662e+00
1.2043216606e+00
1.2018881729e+00
1.2019009122e+00
1.2019154899e+00
1.2019371821e+00
1.2019657951e+00
1.2020010753e+00
1.2020427115e+00
1.2020903409e+00
1.2021435527e+00
1.2022018956e+00
1.2022648828e+00
1.2023320004e+00
1.2024027123e+00
1.2024764700e+00
1.2025527168e+00
1.2026308971e+00
1.2027104611e+00
1.2027908729e+00
1.2028716144e+00
1.2029521920e+00
1.2030321400e+00
1.2031110256e+00
1.2031884508e+00
1.2032640565e+00
1.2033375223e+00
1.2034085698e+00
1.2034769607e+00
1.2035424988e+00
1.2036050269e+00
1.2036644280e+00
1.2037206208e+00
1.2037735599e+00
1.2038232317e+00
1.2038696527e+00
1.2039128654e+00
1.2039529368e+00
1.2039899538e+00
1.2040240213e+00
1.2040552583e+00
1.2040837960e+00
1.2041097738e+00
1.2041333379e+00
1.2041546383e+00
1.2041738268e+00
1.2041910548e+00
1.2042064724e+00
1.2042202259e+00
1.2042324573e+00
1.2042433031e+00
1.2042528932e+00
1.2042613508e+00
1.2042687916e+00
1.2042753234e+00
1.2042810463e+00
1.2042860524e+00
1.2042904260e+00
1.2042942437e+00
1.2042975748e+00
1.2043004813e+00
1.2043030185e+00
1.2043052353e+00
1.2043071747e+00
1.2043088740e+00
1.2043103656e+00
1.2043116772e+00
1.2043128323e+00
1.2043138508e+00
1.2043147494e+00
1.2043155419e+00
1.2043162395e+00
1.2043168518e+00
1.2043173865e+00
1.2043178500e+00
1.2043182479e+00
1.2043185847e+00
1.2043188649e+00
1.2043190923e+00
1.2043192709e+00
1.2043194044e+00
1.2043194969e+00
1.2043195525e+00
1.2043195755e+00
1.2043195706e+00
1.2043195425e+00
1.2043194961e+00
1.2043194365e+00
1.2043193689e+00
1.2043192986e+00
1.2043192306e+00
1.2043191703e+00
1.2043191225e+00
1.2043190923e+00
1.2043190844e+00
1.2043191033e+00
1.2043191534e+00
1.2043192387e+00
1.2043193629e+00
1.2043195295e+00
1.2043197409e+00
1.2043212212e+00
1.2019672996e+00
1.2019798038e+00
1.2019939166e+00
1.2020149131e+00
1.2020426058e+00
1.2020767479e+00
1.2021170386e+00
1.2021631256e+00
1.2022146121e+00
1.2022710604e+00
1.2023320004e+00
1.2023969336e+00
1.2024653427e+00
1.2025366958e+00
1.2026104553e+00
1.2026860829e+00
1.2027630479e+00
1.2028408307e+00
1.2029189313e+00
1.2029968712e+00
1.2030742011e+00
1.2031505015e+00
1.2032253884e+00
1.2032985135e+00
1.2033695683e+00
1.2034382823e+00
1.2035044264e+00
1.2035678098e+00
1.2036282818e+00
1.2036857282e+00
1.2037400716e+00
1.2037912675e+00
1.2038393035e+00
1.2038841950e+00
1.2039259841e+00
1.2039647350e+00
1.2040005326e+00
1.2040334779e+00
1.2040636868e+00
1.2040912856e+00
1.2041164098e+00
1.2041392008e+00
1.2041598037e+00
1.2041783654e+00
1.2041950327e+00
1.2042099505e+00
1.2042232605e+00
1.2042351002e+00
1.2042456014e+00
1.2042548900e+00
1.2042630850e+00
1.2042702982e+00
1.2042766339e+00
1.2042821887e+00
1.2042870517e+00
1.2042913042e+00
1.2042950201e+00
1.2042982660e+00
1.2043011019e+00
1.2043035808e+00
1.2043057497e+00
1.2043076499e+00
1.2043093171e+00
1.2043107822e+00
1.2043120718e+00
1.2043132081e+00
1.2043142101e+00
1.2043150935e+00
1.2043158713e+00
1.2043165543e+00
1.2043171515e+00
1.2043176700e+00