# vtk DataFile Version 2.0
Blank
ASCII
DATASET STRUCTURED_GRID
DIMENSIONS 101 101 2
POINTS 20402 float
0.0000000000e+00 0.0000000000e+00 0.0000000000e+00
1.0000000000e-02 0.0000000000e+00 0.0000000000e+00
2.0000000000e-02 0.0000000000e+00 0.0000000000e+00
3.0000000000e-02 0.0000000000e+00 0.0000000000e+00
4.0000000000e-02 0.0000000000e+00 0.0000000000e+00
5.0000000000e-02 0.0000000000e+00 0.0000000000e+00
6.0000000000e-02 0.0000000000e+00 0.0000000000e+00
7.0000000000e-02 0.0000000000e+00 0.0000000000e+00
8.0000000000e-02 0.0000000000e+00 0.0000000000e+00
9.0000000000e-02 0.0000000000e+00 0.0000000000e+00
1.0000000000e-01 0.0000000000e+00 0.0000000000e+00
1.1000000000e-01 0.0000000000e+00 0.0000000000e+00
1.2000000000e-01 0.0000000000e+00 0.0000000000e+00
1.3000000000e-01 0.0000000000e+00 0.0000000000e+00
1.4000000000e-01 0.0000000000e+00 0.0000000000e+00
1.5000000000e-01 0.0000000000e+00 0.0000000000e+00
1.6000000000e-01 0.0000000000e+00 0.0000000000e+00
1.7000000000e-01 0.0000000000e+00 0.0000000000e+00
1.8000000000e-01 0.0000000000e+00 0.0000000000e+00
1.9000000000e-01 0.0000000000e+00 0.0000000000e+00
2.0000000000e-01 0.0000000000e+00 0.0000000000e+00
2.1000000000e-01 0.0000000000e+00 0.0000000000e+00
2.2000000000e-01 0.0000000000e+00 0.0000000000e+00
2.3000000000e-01 0.0000000000e+00 0.0000000000e+00
2.4000000000e-01 0.0000000000e+00 0.0000000000e+00
2.5000000000e-01 0.0000000000e+00 0.0000000000e+00
2.6000000000e-01 0.0000000000e+00 0.0000000000e+00
2.7000000000e-01 0.0000000000e+00 0.0000000000e+00
2.8000000000e-01 0.0000000000e+00 0.0000000000e+00
2.9000000000e-01 0.0000000000e+00 0.0000000000e+00
3.0000000000e-01 0.0000000000e+00 0.0000000000e+00
3.1000000000e-01 0.0000000000e+00 0.0000000000e+00
3.2000000000e-01 0.0000000000e+00 0.0000000000e+00
3.3000000000e-01 0.0000000000e+00 0.0000000000e+00
3.4000000000e-01 0.0000000000e+00 0.0000000000e+00
3.5000000000e-01 0.0000000000e+00 0.0000000000e+00
3.6000000000e-01 0.0000000000e+00 0.0000000000e+00
3.7000000000e-01 0.0000000000e+00 0.0000000000e+00
3.8000000000e-01 0.0000000000e+00 0.0000000000e+00
3.9000000000e-01 0.0000000000e+00 0.0000000000e+00
4.0000000000e-01 0.0000000000e+00 0.0000000000e+00
4.1000000000e-01 0.0000000000e+00 0.0000000000e+00
4.2000000000e-01 0.0000000000e+00 0.0000000000e+00
4.3000000000e-01 0.0000000000e+00 0.0000000000e+00
4.4000000000e-01 0.0000000000e+00 0.0000000000e+00
4.5000000000e-01 0.0000000000e+00 0.0000000000e+00
4.6000000000e-01 0.0000000000e+00 0.0000000000e+00
4.7000000000e-01 0.0000000000e+00 0.0000000000e+00
4.8000000000e-01 0.0000000000e+00 0.0000000000e+00
4.9000000000e-01 0.0000000000e+00 0.0000000000e+00
5.0000000000e-01 0.0000000000e+00 0.0000000000e+00
5.1000000000e-01 0.0000000000e+00 0.0000000000e+00
5.2000000000e-01 0.0000000000e+00 0.0000000000e+00
5.3000000000e-01 0.0000000000e+00 0.0000000000e+00
5.4000000000e-01 0.0000000000e+00 0.0000000000e+00
5.5000000000e-01 0.0000000000e+00 0.0000000000e+00
5.6000000000e-01 0.0000000000e+00 0.0000000000e+00
5.7000000000e-01 0.0000000000e+00 0.0000000000e+00
5.8000000000e-01 0.0000000000e+00 0.0000000000e+00
5.9000000000e-01 0.0000000000e+00 0.0000000000e+00
6.0000000000e-01 0.0000000000e+00 0.0000000000e+00
6.1000000000e-01 0.0000000000e+00 0.0000000000e+00
6.2000000000e-01 0.0000000000e+00 0.0000000000e+00
6.3000000000e-01 0.0000000000e+00 0.0000000000e+00
6.4000000000e-01 0.0000000000e+00 0.0000000000e+00
6.5000000000e-01 0.0000000000e+00 0.0000000000e+00
6.6000000000e-01 0.0000000000e+00 0.0000000000e+00
6.7000000000e-01 0.0000000000e+00 0.0000000000e+00
6.8000000000e-01 0.0000000000e+00 0.0000000000e+00
6.9000000000e-01 0.0000000000e+00 0.0000000000e+00
7.0000000000e-01 0.0000000000e+00 0.0000000000e+00
7.1000000000e-01 0.0000000000e+00 0.0000000000e+00
7.2000000000e-01 0.0000000000e+00 0.0000000000e+00
7.3000000000e-01 0.0000000000e+00 0.0000000000e+00
7.4000000000e-01 0.0000000000e+00 0.0000000000e+00
7.5000000000e-01 0.0000000000e+00 0.0000000000e+00
7.6000000000e-01 0.0000000000e+00 0.0000000000e+00
7.7000000000e-01 0.0000000000e+00 0.0000000000e+00
7.8000000000e-01 0.0000000000e+00 0.0000000000e+00
7.9000000000e-01 0.0000000000e+00 0.0000000000e+00
8.0000000000e-01 0.0000000000e+00 0.0000000000e+00
8.1000000000e-01 0.0000000000e+00 0.0000000000e+00
8.2000000000e-01 0.0000000000e+00 0.0000000000e+00
8.3000000000e-01 0.0000000000e+00 0.0000000000e+00
8.4000000000e-01 0.0000000000e+00 0.0000000000e+00
8.5000000000e-01 0.0000000000e+00 0.0000000000e+00
8.6000000000e-01 0.0000000000e+00 0.0000000000e+00
8.7000000000e-01 0.0000000000e+00 0.0000000000e+00
8.8000000000e-01 0.0000000000e+00 0.0000000000e+00
8.9000000000e-01 0.0000000000e+00 0.0000000000e+00
9.0000000000e-01 0.0000000000e+00 0.0000000000e+00
9.1000000000e-01 0.0000000000e+00 0.0000000000e+00
9.2000000000e-01 0.0000000000e+00 0.0000000000e+00
9.3000000000e-01 0.0000000000e+00 0.0000000000e+00
9.4000000000e-01 0.0000000000e+00 0.0000000000e+00
9.5000000000e-01 0.0000000000e+00 0.0000000000e+00
9.6000000000e-01 0.0000000000e+00 0.0000000000e+00
9.7000000000e-01 0.0000000000e+00 0.0000000000e+00
9.8000000000e-01 0.0000000000e+00 0.0000000000e+00
9.9000000000e-01 0.0000000000e+00 0.0000000000e+00
1.0000000000e+00 0.0000000000e+00 0.0000000000e+00
0.0000000000e+00 1.0000000000e-02 0.0000000000e+00
1.0000000000e-02 1.0000000000e-02 0.0000000000e+00
2.0000000000e-02 1.0000000000e-02 0.0000000000e+00
3.0000000000e-02 1.0000000000e-02 0.0000000000e+00
4.0000000000e-02 1.0000000000e-02 0.0000000000e+00
5.0000000000e-02 1.0000000000e-02 0.0000000000e+00
6.0000000000e-02 1.0000000000e-02 0.0000000000e+00
7.0000000000e-02 1.0000000000e-02 0.0000000000e+00
8.0000000000e-02 1.0000000000e-02 0.0000000000e+00
9.0000000000e-02 1.0000000000e-02 0.0000000000e+00
1.0000000000e-01 1.0000000000e-02 0.0000000000e+00
1.1000000000e-01 1.0000000000e-02 0.0000000000e+00
1.2000000000e-01 1.0000000000e-02 0.0000000000e+00
1.3000000000e-01 1.0000000000e-02 0.0000000000e+00
1.4000000000e-01 1.0000000000e-02 0.0000000000e+00
1.5000000000e-01 1.0000000000e-02 0.0000000000e+00
1.6000000000e-01 1.0000000000e-02 0.0000000000e+00
1.7000000000e-01 1.0000000000e-02 0.0000000000e+00
1.8000000000e-01 1.0000000000e-02 0.0000000000e+00
1.9000000000e-01 1.0000000000e-02 0.0000000000e+00
2.0000000000e-01 1.0000000000e-02 0.0000000000e+00
2.1000000000e-01 1.0000000000e-02 0.0000000000e+00
2.2000000000e-01 1.0000000000e-02 0.0000000000e+00
2.3000000000e-01 1.0000000000e-02 0.0000000000e+00
2.4000000000e-01 1.0000000000e-02 0.0000000000e+00
2.5000000000e-01 1.0000000000e-02 0.0000000000e+00
2.6000000000e-01 1.0000000000e-02 0.0000000000e+00
2.7000000000e-01 1.0000000000e-02 0.0000000000e+00
2.8000000000e-01 1.0000000000e-02 0.0000000000e+00
2.9000000000e-01 1.0000000000e-02 0.0000000000e+00
3.0000000000e-01 1.0000000000e-02 0.0000000000e+00
3.1000000000e-01 1.0000000000e-02 0.0000000000e+00
3.2000000000e-01 1.0000000000e-02 0.0000000000e+00
3.3000000000e-01 1.0000000000e-02 0.0000000000e+00
3.4000000000e-01 1.0000000000e-02 0.0000000000e+00
3.5000000000e-01 1.0000000000e-02 0.0000000000e+00
3.6000000000e-01 1.0000000000e-02 0.0000000000e+00
3.7000000000e-01 1.0000000000e-02 0.0000000000e+00
3.8000000000e-01 1.0000000000e-02 0.0000000000e+00
3.9000000000e-01 1.0000000000e-02 0.0000000000e+00
4.0000000000e-01 1.0000000000e-02 0.0000000000e+00
4.1000000000e-01 1.0000000000e-02 0.0000000000e+00
4.2000000000e-01 1.0000000000e-02 0.0000000000e+00
4.3000000000e-01 1.0000000000e-02 0.0000000000e+00
4.4000000000e-01 1.0000000000e-02 0.0000000000e+00
4.5000000000e-01 1.0000000000e-02 0.0000000000e+00
4.6000000000e-01 1.0000000000e-02 0.0000000000e+00
4.7000000000e-01 1.0000000000e-02 0.0000000000e+00
4.8000000000e-01 1.0000000000e-02 0.0000000000e+00
4.9000000000e-01 1.0000000000e-02 0.0000000000e+00
5.0000000000e-01 1.0000000000e-02 0.0000000000e+00
5.1000000000e-01 1.0000000000e-02 0.0000000000e+00
5.2000000000e-01 1.0000000000e-02 0.0000000000e+00
5.3000000000e-01 1.0000000000e-02 0.0000000000e+00
5.4000000000e-01 1.0000000000e-02 0.0000000000e+00
5.5000000000e-01 1.0000000000e-02 0.0000000000e+00
5.6000000000e-01 1.0000000000e-02 0.0000000000e+00
5.7000000000e-01 1.0000000000e-02 0.0000000000e+00
5.8000000000e-01 1.0000000000e-02 0.0000000000e+00
5.9000000000e-01 1.0000000000e-02 0.0000000000e+00
6.0000000000e-01 1.0000000000e-02 0.0000000000e+00
6.1000000000e-01 1.0000000000e-02 0.0000000000e+00
6.2000000000e-01 1.0000000000e-02 0.0000000000e+00
6.3000000000e-01 1.0000000000e-02 0.0000000000e+00
6.4000000000e-01 1.0000000000e-02 0.0000000000e+00
6.5000000000e-01 1.0000000000e-02 0.0000000000e+00
6.6000000000e-01 1.0000000000e-02 0.0000000000e+00
6.7000000000e-01 1.0000000000e-02 0.0000000000e+00
6.8000000000e-01 1.0000000000e-02 0.0000000000e+00
6.9000000000e-01 1.0000000000e-02 0.0000000000e+00
7.0000000000e-01 1.0000000000e-02 0.0000000000e+00
7.1000000000e-01 1.0000000000e-02 0.0000000000e+00
7.2000000000e-01 1.0000000000e-02 0.0000000000e+00
7.3000000000e-01 1.0000000000e-02 0.0000000000e+00
7.4000000000e-01 1.0000000000e-02 0.0000000000e+00
7.5000000000e-01 1.0000000000e-02 0.0000000000e+00
7.6000000000e-01 1.0000000000e-02 0.0000000000e+00
7.7000000000e-01 1.0000000000e-02 0.0000000000e+00
7.8000000000e-01 1.0000000000e-02 0.0000000000e+00
7.9000000000e-01 1.0000000000e-02 0.0000000000e+00
8.0000000000e-01 1.0000000000e-02 0.0000000000e+00
8.1000000000e-01 1.0000000000e-02 0.0000000000e+00
8.2000000000e-01 1.0000000000e-02 0.0000000000e+00
8.3000000000e-01 1.0000000000e-02 0.0000000000e+00
8.4000000000e-01 1.0000000000e-02 0.0000000000e+00
8.5000000000e-01 1.0000000000e-02 0.0000000000e+00
8.6000000000e-01 1.0000000000e-02 0.0000000000e+00
8.7000000000e-01 1.0000000000e-02 0.0000000000e+00
8.8000000000e-01 1.0000000000e-02 0.0000000000e+00
8.9000000000e-01 1.0000000000e-02 0.0000000000e+00
9.0000000000e-01 1.0000000000e-02 0.0000000000e+00
9.1000000000e-01 1.0000000000e-02 0.0000000000e+00
9.2000000000e-01 1.0000000000e-02 0.0000000000e+00
[...]
CELL_DATA 10000

SCALARS massDensity float
LOOKUP_TABLE default
1.2008402164e+00
1.2008565924e+00
1.2008819562e+00
1.2009199391e+00
1.2009700753e+00
1.2010317816e+00
1.2011043692e+00
1.2011870526e+00
1.2012789615e+00
1.2013791526e+00
1.2014866254e+00
1.2016003360e+00
1.2017192145e+00
1.2018421800e+00
1.2019681572e+00
1.2020960903e+00
1.2022249583e+00
1.2023537867e+00
1.2024816593e+00
1.2026077270e+00
1.2027312167e+00
1.2028514357e+00
1.2029677774e+00
1.2030797220e+00
1.2031868386e+00
1.2032887826e+00
1.2033852948e+00
1.2034761961e+00
1.2035613842e+00
1.2036408262e+00
1.2037145539e+00
1.2037826551e+00
1.2038452679e+00
1.2039025723e+00
1.2039547835e+00
1.2040021444e+00
1.2040449192e+00
1.2040833863e+00
1.2041178336e+00
1.2041485518e+00
1.2041758312e+00
1.2041999561e+00
1.2042212029e+00
1.2042398359e+00
1.2042561063e+00
1.2042702496e+00
1.2042824854e+00
1.2042930157e+00
1.2043020259e+00
1.2043096839e+00
1.2043161413e+00
1.2043215337e+00
1.2043259822e+00
1.2043295937e+00
1.2043324629e+00
1.2043346731e+00
1.2043362978e+00
1.2043374016e+00
1.2043380419e+00
1.2043382698e+00
1.2043381313e+00
1.2043376681e+00
1.2043369184e+00
1.2043359179e+00
1.2043347001e+00
1.2043332968e+00
1.2043317381e+00
1.2043300533e+00
1.2043282700e+00
1.2043264148e+00
1.2043245129e+00
1.2043225878e+00
1.2043206617e+00
1.2043187543e+00
1.2043168838e+00
1.2043150657e+00
1.2043133134e+00
1.2043116377e+00
1.2043100470e+00
1.2043085473e+00
1.2043071424e+00
1.2043058341e+00
1.2043046224e+00
1.2043035059e+00
1.2043024823e+00
1.2043015483e+00
1.2043007004e+00
1.2042999352e+00
1.2042992491e+00
1.2042986392e+00
1.2042981034e+00
1.2042976409e+00
1.2042972530e+00
1.2042969451e+00
1.2042967292e+00
1.2042966274e+00
1.2042966767e+00
1.2042969336e+00
1.2042974726e+00
1.2042932046e+00
1.2008565924e+00
1.2008735232e+00
1.2008990772e+00
1.2009370221e+00
1.2009869485e+00
1.2010483121e+00
1.2011204499e+00
1.2012025953e+00
1.2012938915e+00
1.2013934072e+00
1.2015001509e+00
1.2016130880e+00
1.2017311562e+00
1.2018532826e+00
1.2019783983e+00
1.2021054550e+00
1.2022334373e+00
1.2023613771e+00
1.2024883630e+00
1.2026135516e+00
1.2027361733e+00
1.2028555403e+00
1.2029710485e+00
1.2030821818e+00
1.2031885110e+00
1.2032896943e+00
1.2033854731e+00
1.2034756701e+00
1.2035601829e+00
1.2036389796e+00
1.2037120911e+00
1.2037796056e+00
1.2038416600e+00
1.2038984341e+00
1.2039501420e+00
1.2039970260e+00
1.2040393491e+00
1.2040773898e+00
1.2041114348e+00
1.2041417754e+00
1.2041687012e+00
1.2041924978e+00
1.2042134416e+00
1.2042317987e+00
1.2042478213e+00
1.2042617472e+00
1.2042737977e+00
1.2042841775e+00
1.2042930743e+00
1.2043006587e+00
1.2043070848e+00
1.2043124907e+00
1.2043169995e+00
1.2043207200e+00
1.2043237482e+00
1.2043261682e+00
1.2043280535e+00
1.2043294682e+00
1.2043304683e+00
1.2043311027e+00
1.2043314143e+00
1.2043314412e+00
1.2043312172e+00
1.2043307731e+00
1.2043301366e+00
1.2043293337e+00
1.2043283884e+00
1.2043273236e+00
1.2043261608e+00
1.2043249206e+00
1.2043236224e+00
1.2043222847e+00
1.2043209248e+00
1.2043195588e+00
1.2043182014e+00
1.2043168659e+00
1.2043155639e+00
1.2043143054e+00
1.2043130987e+00
1.2043119502e+00
1.2043108651e+00
1.2043098464e+00
1.2043088963e+00
1.2043080154e+00
1.2043072034e+00
1.2043064591e+00
1.2043057808e+00
1.2043051665e+00
1.2043046138e+00
1.2043041205e+00
1.2043036847e+00
1.2043033050e+00
1.2043029811e+00
1.2043027143e+00
1.2043025086e+00
1.2043023709e+00
1.2043023114e+00
1.2043023403e+00
1.2043024597e+00
1.2042972932e+00
1.2008819562e+00
1.2008990772e+00
1.2009246383e+00
1.2009624366e+00
1.2010120836e+00
1.2010730515e+00
1.2011446920e+00
1.2012262497e+00
1.2013168790e+00
1.2014156571e+00
1.2015216025e+00
1.2016336886e+00
1.2017508626e+00
1.2018720591e+00
1.2019962188e+00
1.2021223003e+00
1.2022492973e+00
1.2023762480e+00
1.2025022491e+00
1.2026264627e+00
1.2027481262e+00
1.2028665561e+00
1.2029811542e+00
1.2030914076e+00
1.2031968915e+00
1.2032972658e+00
1.2033922753e+00
1.2034817434e+00
1.2035655695e+00
1.2036437214e+00
1.2037162310e+00
1.2037831852e+00
1.2038447210e+00
1.2039010163e+00
1.2039522845e+00
1.2039987659e+00
1.2040407224e+00
1.2040784300e+00
1.2041121745e+00
1.2041422446e+00
1.2041689289e+00
1.2041925107e+00
1.2042132655e+00
1.2042314576e+00
1.2042473384e+00
1.2042611441e+00
1.2042730954e+00
1.2042833959e+00
1.2042922326e+00
1.2042997754e+00
1.2043061777e+00
1.2043115768e+00
1.2043160952e+00
1.2043198408e+00
1.2043229087e+00
1.2043253819e+00
1.2043273327e+00
1.2043288238e+00
1.2043299099e+00
1.2043306380e+00
1.2043310494e+00
1.2043311803e+00
1.2043310626e+00
1.2043307250e+00
1.2043301935e+00
1.2043294922e+00
1.2043286434e+00
1.2043276684e+00
1.2043265874e+00
1.2043254199e+00
1.2043241846e+00
1.2043228992e+00
1.2043215809e+00
1.2043202458e+00
1.2043189089e+00
1.2043175840e+00
1.2043162833e+00
1.2043150180e+00
1.2043137972e+00
1.2043126287e+00
1.2043115186e+00
1.2043104715e+00
1.2043094903e+00
1.2043085770e+00
1.2043077319e+00
1.2043069548e+00
1.2043062443e+00
1.2043055986e+00
1.2043050156e+00
1.2043044928e+00
1.2043040277e+00
1.2043036180e+00
1.2043032620e+00
1.2043029585e+00
1.2043027069e+00
1.2043025070e+00
1.2043023567e+00
1.2043022487e+00
1.2043021604e+00
1.2042965050e+00
1.2009199391e+00
1.2009370221e+00
1.2009624366e+00
1.2009999233e+00
1.2010490993e+00
1.2011094482e+00
1.2011803327e+00
1.2012610105e+00
1.2013506471e+00
1.2014483332e+00
1.2015530985e+00
1.2016639300e+00
1.2017797862e+00
1.2018996156e+00
1.2020223695e+00
1.2021470203e+00
1.2022725715e+00
1.2023980738e+00
1.2025226330e+00
1.2026454222e+00
1.2027656863e+00
1.2028827510e+00
1.2029960239e+00
1.2031049993e+00
1.2032092563e+00
1.2033084603e+00
1.2034023579e+00
1.2034907759e+00
1.2035736142e+00
1.2036508423e+00
1.2037224908e+00
1.2037886471e+00
1.2038494459e+00
1.2039050642e+00
1.2039557126e+00
1.2040016295e+00
1.2040430736e+00
1.2040803187e+00
1.2041136472e+00
1.2041433454e+00
1.2041696986e+00
1.2041929880e+00
1.2042134860e+00
1.2042314548e+00
1.2042471433e+00
1.2042607860e+00
1.2042726014e+00
1.2042827918e+00
1.2042915424e+00
1.2042990218e+00
1.2043053819e+00
1.2043107590e+00
1.2043152740e+00
1.2043190339e+00
1.2043221322e+00
1.2043246507e+00
1.2043266602e+00
1.2043282218e+00
1.2043293883e+00
1.2043302052e+00
1.2043307117e+00
1.2043309422e+00
1.2043309265e+00
1.2043306914e+00
1.2043302610e+00
1.2043296575e+00
1.2043289015e+00
1.2043280128e+00
1.2043270102e+00
1.2043259123e+00
1.2043247368e+00
1.2043235010e+00
1.2043222219e+00
1.2043209154e+00
1.2043195970e+00
1.2043182808e+00
1.2043169799e+00
1.2043157063e+00
1.2043144702e+00
1.2043132804e+00
1.2043121443e+00
1.2043110674e+00
1.2043100539e+00
1.2043091065e+00
1.2043082267e+00
1.2043074147e+00
1.2043066697e+00
1.2043059901e+00
1.2043053739e+00
1.2043048182e+00
1.2043043202e+00
1.2043038767e+00
1.2043034843e+00
1.2043031397e+00
1.2043028391e+00
1.2043025772e+00
1.2043023457e+00
1.2043021297e+00
1.2043019020e+00
1.2042959338e+00
1.2009700753e+00
1.2009869485e+00
1.2010120836e+00
1.2010490993e+00
1.2010976160e+00
1.2011571245e+00
1.2012269995e+00
1.2013065104e+00
1.2013948378e+00
1.2014910862e+00
1.2015943020e+00
1.2017034868e+00
1.2018176164e+00
1.2019356540e+00
1.2020565687e+00
1.2021793466e+00
1.2023030083e+00
1.2024266172e+00
1.2025492943e+00
1.2026702237e+00
1.2027886636e+00
1.2029039485e+00
1.2030154965e+00
1.2031228086e+00
1.2032254717e+00
1.2033231553e+00
1.2034156113e+00
1.2035026685e+00
1.2035842294e+00
1.2036602633e+00
1.2037308017e+00
1.2037959299e+00
1.2038557818e+00
1.2039105312e+00
1.2039603864e+00
1.2040055819e+00
1.2040463736e+00
1.2040830307e+00
1.2041158321e+00
1.2041450600e+00
1.2041709962e+00
1.2041939176e+00
1.2042140935e+00
1.2042317822e+00
1.2042472300e+00
1.2042606680e+00
1.2042723123e+00
1.2042823624e+00
1.2042910016e+00
1.2042983962e+00
1.2043046963e+00
1.2043100362e+00
1.2043145354e+00
1.2043182989e+00
1.2043214186e+00
1.2043239746e+00
1.2043260359e+00
1.2043276619e+00
1.2043289035e+00
1.2043298041e+00
1.2043304011e+00
1.2043307267e+00
1.2043308088e+00
1.2043306721e+00
1.2043303387e+00
1.2043298291e+00
1.2043291622e+00
1.2043283562e+00
1.2043274287e+00
1.2043263971e+00
1.2043252785e+00
1.2043240896e+00
1.2043228471e+00
1.2043215670e+00
1.2043202650e+00
1.2043189558e+00
1.2043176532e+00
1.2043163699e+00
1.2043151172e+00
1.2043139050e+00
1.2043127416e+00
1.2043116339e+00
1.2043105869e+00
1.2043096042e+00
1.2043086882e+00
1.2043078397e+00
1.2043070584e+00
1.2043063430e+00
1.2043056914e+00
1.2043051007e+00
1.2043045675e+00
1.2043040878e+00
1.2043036573e+00
1.2043032709e+00
1.2043029225e+00
1.2043026042e+00
1.2043023050e+00
1.2043020083e+00
1.2043016894e+00
1.2042955210e+00
1.2010317816e+00
1.2010483121e+00
1.2010730515e+00
1.2011094482e+00
1.2011571245e+00
1.2012155800e+00
1.2012841998e+00
1.2013622685e+00
1.2014489814e+00
1.2015434618e+00
1.2016447728e+00
1.2017519367e+00
1.2018639471e+00
1.2019797888e+00
1.2020984483e+00
1.2022189330e+00
1.2023402798e+00
1.2024615720e+00
1.2025819452e+00
1.2027006011e+00
1.2028168099e+00
1.2029299208e+00
1.2030393615e+00
1.2031446441e+00
1.2032453620e+00
1.2033411927e+00
1.2034318919e+00
1.2035172929e+00
1.2035972993e+00
1.2036718823e+00
1.2037410722e+00
1.2038049538e+00
1.2038636579e+00
1.2039173560e+00
1.2039662522e+00
1.2040105775e+00
1.2040505824e+00
1.2040865323e+00
1.2041187004e+00
1.2041473646e+00
1.2041728012e+00
1.2041952828e+00
1.2042150738e+00
1.2042324286e+00
1.2042475889e+00
1.2042607825e+00
1.2042722216e+00
1.2042821028e+00
1.2042906062e+00
1.2042978955e+00
1.2043041183e+00
1.2043094067e+00
1.2043138777e+00
1.2043176345e+00
1.2043207667e+00
1.2043233526e+00
1.2043254591e+00
1.2043271435e+00
1.2043284547e+00
1.2043294340e+00
1.2043301168e+00
1.2043305331e+00
1.2043307086e+00
1.2043306662e+00
1.2043304259e+00
1.2043300062e+00
1.2043294247e+00
1.2043286978e+00
1.2043278420e+00
1.2043268736e+00
1.2043258089e+00
1.2043246641e+00
1.2043234557e+00
1.2043221997e+00
1.2043209122e+00
1.2043196081e+00
1.2043183023e+00
1.2043170079e+00
1.2043157375e+00
1.2043145018e+00
1.2043133103e+00
1.2043121707e+00
1.2043110892e+00
1.2043100703e+00
1.2043091170e+00
1.2043082308e+00
1.2043074119e+00
1.2043066593e+00
1.2043059709e+00
1.2043053439e+00
1.2043047743e+00
1.2043042578e+00
1.2043037891e+00
1.2043033621e+00
1.2043029695e+00
1.2043026023e+00
1.2043022488e+00
1.2043018934e+00
1.2043015155e+00
1.2042952187e+00
1.2011043692e+00
1.2011204499e+00
1.2011446920e+00
1.2011803327e+00
1.2012269995e+00
1.2012841998e+00
1.2013513325e+00
1.2014276968e+00
1.2015125074e+00
1.2016049056e+00
1.2017039774e+00
1.2018087654e+00
1.2019182879e+00
1.2020315503e+00
1.2021475642e+00
1.2022653572e+00
1.2023839902e+00
1.2025025650e+00
1.2026202390e+00
1.2027362296e+00
1.2028498261e+00
1.2029603904e+00
1.2030673652e+00
1.2031702720e+00
1.2032687157e+00
1.2033623794e+00
1.2034510261e+00
1.2035344919e+00
1.2036126842e+00
1.2036855739e+00
1.2037531919e+00
1.2038156203e+00
1.2038729884e+00
1.2039254630e+00
1.2039732448e+00
1.2040165590e+00
1.2040556515e+00
1.2040907812e+00
1.2041222164e+00
1.2041502282e+00
1.2041750879e+00
1.2041970617e+00
1.2042164090e+00
1.2042333787e+00
1.2042482077e+00
1.2042611190e+00
1.2042723210e+00
1.2042820059e+00
1.2042903505e+00
1.2042975151e+00
1.2043036442e+00
1.2043088672e+00
1.2043132984e+00
1.2043170383e+00
1.2043201747e+00
1.2043227830e+00
1.2043249281e+00
1.2043266651e+00
1.2043280406e+00
1.2043290938e+00
1.2043298577e+00
1.2043303601e+00
1.2043306249e+00
1.2043306725e+00
1.2043305213e+00
1.2043301878e+00
1.2043296878e+00
1.2043290365e+00
1.2043282489e+00
1.2043273405e+00
1.2043263266e+00
1.2043252233e+00
1.2043240465e+00
1.2043228124e+00
1.2043215373e+00
1.2043202368e+00
1.2043189261e+00
1.2043176195e+00
1.2043163303e+00
1.2043150702e+00
1.2043138496e+00
1.2043126774e+00
1.2043115606e+00
1.2043105047e+00
1.2043095134e+00
1.2043085888e+00
1.2043077315e+00
1.2043069410e+00
1.2043062152e+00
1.2043055512e+00
1.2043049451e+00
1.2043043920e+00
1.2043038862e+00
1.2043034211e+00
1.2043029888e+00
1.2043025802e+00
1.2043021839e+00
1.2043017864e+00
1.2043013709e+00
1.2042949915e+00
1.2011870526e+00
1.2012025953e+00
1.2012262497e+00
1.2012610105e+00
1.2013065104e+00
1.2013622685e+00
1.2014276968e+00
1.2015021135e+00
1.2015847516e+00
1.2016747763e+00
1.2017712956e+00
1.2018733789e+00
1.2019800681e+00
1.2020903967e+00
1.2022033999e+00
1.2023181331e+00
1.2024336794e+00
1.2025491666e+00
1.2026637719e+00
1.2027767358e+00
1.2028873640e+00
1.2029950376e+00
1.2030992120e+00
1.2031994236e+00
1.2032952859e+00
1.2033864926e+00
1.2034728114e+00
1.2035540845e+00
1.2036302207e+00
1.2037011932e+00
1.2037670311e+00
1.2038278159e+00
1.2038836724e+00
1.2039347646e+00
1.2039812869e+00
1.2040234600e+00
1.2040615227e+00
1.2040957282e+00
1.2041263373e+00
1.2041536151e+00
1.2041778254e+00
1.2041992286e+00
1.2042180771e+00
1.2042346143e+00
1.2042490709e+00
1.2042616650e+00
1.2042725997e+00
1.2042820630e+00
1.2042902271e+00
1.2042972488e+00
1.2043032688e+00
1.2043084133e+00
1.2043127936e+00
1.2043165074e+00
1.2043196396e+00
1.2043222634e+00
1.2043244408e+00
1.2043262248e+00
1.2043276594e+00
1.2043287815e+00
1.2043296220e+00
1.2043302062e+00
1.2043305559e+00
1.2043306895e+00
1.2043306233e+00
1.2043303721e+00
1.2043299500e+00
1.2043293706e+00
1.2043286479e+00
1.2043277962e+00
1.2043268303e+00
1.2043257656e+00
1.2043246180e+00
1.2043234037e+00
1.2043221391e+00
1.2043208405e+00
1.2043195236e+00
1.2043182036e+00
1.2043168945e+00
1.2043156091e+00
1.2043143589e+00
1.2043131536e+00
1.2043120011e+00
1.2043109077e+00
1.2043098780e+00
1.2043089146e+00
1.2043080187e+00
1.2043071899e+00
1.2043064266e+00
1.2043057258e+00
1.2043050836e+00
1.2043044950e+00
1.2043039540e+00
1.2043034538e+00
1.2043029865e+00
1.2043025433e+00
1.2043021137e+00
1.2043016860e+00
1.2043012471e+00
1.2042948147e+00
1.2012789615e+00
1.2012938915e+00
1.2013168790e+00
1.2013506471e+00
1.2013948378e+00
1.2014489814e+00
1.2015125074e+00
1.2015847516e+00
1.2016649709e+00
1.2017523531e+00
1.2018460345e+00
1.2019451098e+00
1.2020486514e+00
1.2021557194e+00
1.2022653799e+00
1.2023767140e+00
1.2024888349e+00
1.2026008937e+00
1.2027120949e+00
1.2028216994e+00
1.2029290362e+00
1.2030335027e+00
1.2031345732e+00
1.2032317959e+00
1.2033247983e+00
1.2034132815e+00
1.2034970224e+00
1.2035758664e+00
1.2036497269e+00
1.2037185766e+00
1.2037824455e+00
1.2038414115e+00
1.2038955973e+00
1.2039451609e+00
1.2039902923e+00
1.2040312048e+00
1.2040681312e+00
1.2041013167e+00
1.2041310152e+00
1.2041574837e+00
1.2041809789e+00
1.2042017535e+00
1.2042200531e+00
1.2042361140e+00
1.2042501609e+00
1.2042624054e+00
1.2042730454e+00
1.2042822635e+00
1.2042902274e+00
1.2042970891e+00
1.2043029858e+00
1.2043080397e+00
1.2043123589e+00
1.2043160377e+00
1.2043191582e+00
1.2043217906e+00
1.2043239945e+00
1.2043258200e+00
1.2043273087e+00
1.2043284951e+00
1.2043294076e+00
1.2043300694e+00
1.2043304999e+00
1.2043307154e+00
1.2043307302e+00
1.2043305574e+00
1.2043302094e+00
1.2043296984e+00
1.2043290372e+00
1.2043282390e+00
1.2043273181e+00
1.2043262894e+00
1.2043251685e+00
1.2043239718e+00
1.2043227159e+00
1.2043214176e+00
1.2043200932e+00
1.2043187587e+00
1.2043174290e+00
1.2043161178e+00
1.2043148374e+00
1.2043135986e+00
1.2043124102e+00
1.2043112793e+00
1.2043102111e+00
1.2043092090e+00
1.2043082745e+00
1.2043074079e+00
1.2043066075e+00
1.2043058706e+00
1.2043051934e+00
1.2043045707e+00
1.2043039968e+00
1.2043034647e+00
1.2043029669e+00
1.2043024948e+00
1.2043020393e+00
1.2043015903e+00
1.2043011374e+00
1.2042946716e+00
1.2013791526e+00
1.2013934072e+00
1.2014156571e+00
1.2014483332e+00
1.2014910862e+00
1.2015434618e+00
1.2016049056e+00
1.2016747763e+00
1.2017523531e+00
1.2018368525e+00
1.2019274368e+00
1.2020232331e+00
1.2021233421e+00
1.2022268578e+00
1.2023328748e+00
1.2024405075e+00
1.2025488961e+00
1.2026572229e+00
1.2027647166e+00
1.2028706654e+00
1.2029744186e+00
1.2030753964e+00
1.2031730886e+00
1.2032670611e+00
1.2033569519e+00
1.2034424746e+00
1.2035234118e+00
1.2035996163e+00
1.2036710028e+00
1.2037375469e+00
1.2037992762e+00
1.2038562678e+00
1.2039086389e+00
1.2039565440e+00
1.2040001656e+00
1.2040397111e+00
1.2040754049e+00
1.2041074851e+00
1.2041361965e+00
1.2041617885e+00
1.2041845092e+00
1.2042046034e+00
1.2042223088e+00
1.2042378543e+00
1.2042514574e+00
1.2042633235e+00
1.2042736438e+00
1.2042825956e+00
1.2042903411e+00
1.2042970277e+00
1.2043027881e+00
1.2043077404e+00
1.2043119889e+00
1.2043156247e+00
1.2043187264e+00
1.2043213612e+00
1.2043235859e+00
1.2043254477e+00
1.2043269858e+00
1.2043282320e+00
1.2043292122e+00
1.2043299472e+00
1.2043304544e+00
1.2043307477e+00
1.2043308397e+00
1.2043307415e+00
1.2043304638e+00
1.2043300177e+00
1.2043294145e+00
1.2043286668e+00
1.2043277880e+00
1.2043267925e+00
1.2043256961e+00
1.2043245149e+00
1.2043232660e+00
1.2043219664e+00
1.2043206334e+00
1.2043192835e+00
1.2043179324e+00
1.2043165949e+00
1.2043152842e+00
1.2043140118e+00
1.2043127876e+00
1.2043116194e+00
1.2043105131e+00
1.2043094727e+00
1.2043085003e+00
1.2043075964e+00
1.2043067599e+00
1.2043059881e+00
1.2043052773e+00
1.2043046226e+00
1.2043040182e+00
1.2043034575e+00
1.2043029331e+00
1.2043024374e+00
1.2043019618e+00
1.2043014979e+00
1.2043010373e+00
1.2042945515e+00
1.2014866254e+00
1.2015001509e+00
1.2015216025e+00
1.2015530985e+00
1.2015943020e+00
1.2016447728e+00
1.2017039774e+00
1.2017712956e+00
1.2018460345e+00
1.2019274368e+00
1.2020146977e+00
1.2021069739e+00
1.2022034018e+00
1.2023031059e+00
1.2024052171e+00
1.2025088798e+00
1.2026132689e+00
1.2027175944e+00
1.2028211163e+00
1.2029231469e+00
1.2030230622e+00
1.2031203018e+00
1.2032143770e+00
1.2033048679e+00
1.2033914284e+00
1.2034737807e+00
1.2035517180e+00
1.2036250967e+00
1.2036938368e+00
1.2037579134e+00
1.2038173549e+00
1.2038722342e+00
1.2039226657e+00
1.2039687971e+00
1.2040108055e+00
1.2040488898e+00
1.2040832673e+00
1.2041141664e+00
1.2041418241e+00
1.2041664802e+00
1.2041883743e+00
1.2042077423e+00
1.2042248137e+00
1.2042398091e+00
1.2042529388e+00
1.2042644005e+00
1.2042743793e+00
1.2042830459e+00
1.2042905571e+00
1.2042970550e+00
1.2043026675e+00
1.2043075083e+00
1.2043116778e+00
1.2043152631e+00
1.2043183396e+00
1.2043209711e+00
1.2043232113e+00
1.2043251048e+00
1.2043266876e+00
1.2043279892e+00
1.2043290329e+00
1.2043298372e+00
1.2043304169e+00
1.2043307842e+00
1.2043309494e+00
1.2043309219e+00
1.2043307110e+00
1.2043303261e+00
1.2043297777e+00
1.2043290773e+00
1.2043282376e+00
1.2043272729e+00
1.2043261985e+00
1.2043250308e+00
1.2043237872e+00
1.2043224851e+00
1.2043211423e+00
1.2043197762e+00
1.2043184033e+00
1.2043170393e+00
1.2043156982e+00
1.2043143925e+00
1.2043131328e+00
1.2043119278e+00
1.2043107841e+00
1.2043097062e+00
1.2043086969e+00
1.2043077570e+00
1.2043068856e+00
1.2043060805e+00
1.2043053380e+00
1.2043046535e+00
1.2043040214e+00
1.2043034352e+00
1.2043028882e+00
1.2043023730e+00
1.2043018822e+00
1.2043014083e+00
1.2043009445e+00
1.2042944490e+00
1.2016003360e+00
1.2016130880e+00
1.2016336886e+00
1.2016639300e+00
1.2017034868e+00
1.2017519367e+00
1.2018087654e+00
1.2018733789e+00
1.2019451098e+00
1.2020232331e+00
1.2021069739e+00
1.2021955254e+00
1.2022880562e+00
1.2023837289e+00
1.2024817068e+00
1.2025811721e+00
1.2026813302e+00
1.2027814264e+00
1.2028807478e+00
1.2029786379e+00
1.2030744955e+00
1.2031677859e+00
1.2032580381e+00
1.2033448517e+00
1.2034278929e+00
1.2035068976e+00
1.2035816655e+00
1.2036520611e+00
1.2037180061e+00
1.2037794786e+00
1.2038365042e+00
1.2038891547e+00
1.2039375386e+00
1.2039817990e+00
1.2040221050e+00
1.2040586484e+00
1.2040916369e+00
1.2041212910e+00
1.2041478374e+00
1.2041715070e+00
1.2041925297e+00
1.2042111324e+00
1.2042275354e+00
1.2042419512e+00
1.2042545816e+00
1.2042656170e+00
1.2042752352e+00
1.2042836005e+00
1.2042908636e+00
1.2042971610e+00
1.2043026155e+00
1.2043073362e+00
1.2043114190e+00
1.2043149474e+00
1.2043179928e+00
1.2043206158e+00
1.2043228669e+00
1.2043247874e+00
1.2043264108e+00
1.2043277637e+00
1.2043288668e+00
1.2043297363e+00
1.2043303847e+00
1.2043308220e+00
1.2043310566e+00
1.2043310961e+00
1.2043309482e+00
1.2043306211e+00
1.2043301241e+00
1.2043294679e+00
1.2043286646e+00
1.2043277280e+00