# vtk DataFile Version 2.0
Blank
ASCII
DATASET STRUCTURED_GRID
DIMENSIONS 101 101 2
POINTS 20402 float
0.0000000000e+00 0.0000000000e+00 0.0000000000e+00
1.0000000000e-02 0.0000000000e+00 0.0000000000e+00
2.0000000000e-02 0.0000000000e+00 0.0000000000e+00
3.0000000000e-02 0.0000000000e+00 0.0000000000e+00
4.0000000000e-02 0.0000000000e+00 0.0000000000e+00
5.0000000000e-02 0.0000000000e+00 0.0000000000e+00
6.0000000000e-02 0.0000000000e+00 0.0000000000e+00
7.0000000000e-02 0.0000000000e+00 0.0000000000e+00
8.0000000000e-02 0.0000000000e+00 0.0000000000e+00
9.0000000000e-02 0.0000000000e+00 0.0000000000e+00
1.0000000000e-01 0.0000000000e+00 0.0000000000e+00
1.1000000000e-01 0.0000000000e+00 0.0000000000e+00
1.2000000000e-01 0.0000000000e+00 0.0000000000e+00
1.3000000000e-01 0.0000000000e+00 0.0000000000e+00
1.4000000000e-01 0.0000000000e+00 0.0000000000e+00
1.5000000000e-01 0.0000000000e+00 0.0000000000e+00
1.6000000000e-01 0.0000000000e+00 0.0000000000e+00
1.7000000000e-01 0.0000000000e+00 0.0000000000e+00
1.8000000000e-01 0.0000000000e+00 0.0000000000e+00
1.9000000000e-01 0.0000000000e+00 0.0000000000e+00
2.0000000000e-01 0.0000000000e+00 0.0000000000e+00
2.1000000000e-01 0.0000000000e+00 0.0000000000e+00
2.2000000000e-01 0.0000000000e+00 0.0000000000e+00
2.3000000000e-01 0.0000000000e+00 0.0000000000e+00
2.4000000000e-01 0.0000000000e+00 0.0000000000e+00
2.5000000000e-01 0.0000000000e+00 0.0000000000e+00
2.6000000000e-01 0.0000000000e+00 0.0000000000e+00
2.7000000000e-01 0.0000000000e+00 0.0000000000e+00
2.8000000000e-01 0.0000000000e+00 0.0000000000e+00
2.9000000000e-01 0.0000000000e+00 0.0000000000e+00
3.0000000000e-01 0.0000000000e+00 0.0000000000e+00
3.1000000000e-01 0.0000000000e+00 0.0000000000e+00
3.2000000000e-01 0.0000000000e+00 0.0000000000e+00
3.3000000000e-01 0.0000000000e+00 0.0000000000e+00
3.4000000000e-01 0.0000000000e+00 0.0000000000e+00
3.5000000000e-01 0.0000000000e+00 0.0000000000e+00
3.6000000000e-01 0.0000000000e+00 0.0000000000e+00
3.7000000000e-01 0.0000000000e+00 0.0000000000e+00
3.8000000000e-01 0.0000000000e+00 0.0000000000e+00
3.9000000000e-01 0.0000000000e+00 0.0000000000e+00
4.0000000000e-01 0.0000000000e+00 0.0000000000e+00
4.1000000000e-01 0.0000000000e+00 0.0000000000e+00
4.2000000000e-01 0.0000000000e+00 0.0000000000e+00
4.3000000000e-01 0.0000000000e+00 0.0000000000e+00
4.4000000000e-01 0.0000000000e+00 0.0000000000e+00
4.5000000000e-01 0.0000000000e+00 0.0000000000e+00
4.6000000000e-01 0.0000000000e+00 0.0000000000e+00
4.7000000000e-01 0.0000000000e+00 0.0000000000e+00
4.8000000000e-01 0.0000000000e+00 0.0000000000e+00
4.9000000000e-01 0.0000000000e+00 0.0000000000e+00
5.0000000000e-01 0.0000000000e+00 0.0000000000e+00
5.1000000000e-01 0.0000000000e+00 0.0000000000e+00
5.2000000000e-01 0.0000000000e+00 0.0000000000e+00
5.3000000000e-01 0.0000000000e+00 0.0000000000e+00
5.4000000000e-01 0.0000000000e+00 0.0000000000e+00
5.5000000000e-01 0.0000000000e+00 0.0000000000e+00
5.6000000000e-01 0.0000000000e+00 0.0000000000e+00
5.7000000000e-01 0.0000000000e+00 0.0000000000e+00
5.8000000000e-01 0.0000000000e+00 0.0000000000e+00
5.9000000000e-01 0.0000000000e+00 0.0000000000e+00
6.0000000000e-01 0.0000000000e+00 0.0000000000e+00
6.1000000000e-01 0.0000000000e+00 0.0000000000e+00
6.2000000000e-01 0.0000000000e+00 0.0000000000e+00
6.3000000000e-01 0.0000000000e+00 0.0000000000e+00
6.4000000000e-01 0.0000000000e+00 0.0000000000e+00
6.5000000000e-01 0.0000000000e+00 0.0000000000e+00
6.6000000000e-01 0.0000000000e+00 0.0000000000e+00
6.7000000000e-01 0.0000000000e+00 0.0000000000e+00
6.8000000000e-01 0.0000000000e+00 0.0000000000e+00
6.9000000000e-01 0.0000000000e+00 0.0000000000e+00
7.0000000000e-01 0.0000000000e+00 0.0000000000e+00
7.1000000000e-01 0.0000000000e+00 0.0000000000e+00
7.2000000000e-01 0.0000000000e+00 0.0000000000e+00
7.3000000000e-01 0.0000000000e+00 0.0000000000e+00
7.4000000000e-01 0.0000000000e+00 0.0000000000e+00
7.5000000000e-01 0.0000000000e+00 0.0000000000e+00
7.6000000000e-01 0.0000000000e+00 0.0000000000e+00
7.7000000000e-01 0.0000000000e+00 0.0000000000e+00
7.8000000000e-01 0.0000000000e+00 0.0000000000e+00
7.9000000000e-01 0.0000000000e+00 0.0000000000e+00
8.0000000000e-01 0.0000000000e+00 0.0000000000e+00
8.1000000000e-01 0.0000000000e+00 0.0000000000e+00
8.2000000000e-01 0.0000000000e+00 0.0000000000e+00
8.3000000000e-01 0.0000000000e+00 0.0000000000e+00
8.4000000000e-01 0.0000000000e+00 0.0000000000e+00
8.5000000000e-01 0.0000000000e+00 0.0000000000e+00
8.6000000000e-01 0.0000000000e+00 0.0000000000e+00
8.7000000000e-01 0.0000000000e+00 0.0000000000e+00
8.8000000000e-01 0.0000000000e+00 0.0000000000e+00
8.9000000000e-01 0.0000000000e+00 0.0000000000e+00
9.0000000000e-01 0.0000000000e+00 0.0000000000e+00
9.1000000000e-01 0.0000000000e+00 0.0000000000e+00
9.2000000000e-01 0.0000000000e+00 0.0000000000e+00
9.3000000000e-01 0.0000000000e+00 0.0000000000e+00
9.4000000000e-01 0.0000000000e+00 0.0000000000e+00
9.5000000000e-01 0.0000000000e+00 0.0000000000e+00
9.6000000000e-01 0.0000000000e+00 0.0000000000e+00
9.7000000000e-01 0.0000000000e+00 0.0000000000e+00
9.8000000000e-01 0.0000000000e+00 0.0000000000e+00
9.9000000000e-01 0.0000000000e+00 0.0000000000e+00
1.0000000000e+00 0.0000000000e+00 0.0000000000e+00
0.0000000000e+00 1.0000000000e-02 0.0000000000e+00
1.0000000000e-02 1.0000000000e-02 0.0000000000e+00
2.0000000000e-02 1.0000000000e-02 0.0000000000e+00
3.0000000000e-02 1.0000000000e-02 0.0000000000e+00
4.0000000000e-02 1.0000000000e-02 0.0000000000e+00
5.0000000000e-02 1.0000000000e-02 0.0000000000e+00
6.0000000000e-02 1.0000000000e-02 0.0000000000e+00
7.0000000000e-02 1.0000000000e-02 0.0000000000e+00
8.0000000000e-02 1.0000000000e-02 0.0000000000e+00
9.0000000000e-02 1.0000000000e-02 0.0000000000e+00
1.0000000000e-01 1.0000000000e-02 0.0000000000e+00
1.1000000000e-01 1.0000000000e-02 0.0000000000e+00
1.2000000000e-01 1.0000000000e-02 0.0000000000e+00
1.3000000000e-01 1.0000000000e-02 0.0000000000e+00
1.4000000000e-01 1.0000000000e-02 0.0000000000e+00
1.5000000000e-01 1.0000000000e-02 0.0000000000e+00
1.6000000000e-01 1.0000000000e-02 0.0000000000e+00
1.7000000000e-01 1.0000000000e-02 0.0000000000e+00
1.8000000000e-01 1.0000000000e-02 0.0000000000e+00
1.9000000000e-01 1.0000000000e-02 0.0000000000e+00
2.0000000000e-01 1.0000000000e-02 0.0000000000e+00
2.1000000000e-01 1.0000000000e-02 0.0000000000e+00
2.2000000000e-01 1.0000000000e-02 0.0000000000e+00
2.3000000000e-01 1.0000000000e-02 0.0000000000e+00
2.4000000000e-01 1.0000000000e-02 0.0000000000e+00
2.5000000000e-01 1.0000000000e-02 0.0000000000e+00
2.6000000000e-01 1.0000000000e-02 0.0000000000e+00
2.7000000000e-01 1.0000000000e-02 0.0000000000e+00
2.8000000000e-01 1.0000000000e-02 0.0000000000e+00
2.9000000000e-01 1.0000000000e-02 0.0000000000e+00
3.0000000000e-01 1.0000000000e-02 0.0000000000e+00
3.1000000000e-01 1.0000000000e-02 0.0000000000e+00
3.2000000000e-01 1.0000000000e-02 0.0000000000e+00
3.3000000000e-01 1.0000000000e-02 0.0000000000e+00
3.4000000000e-01 1.0000000000e-02 0.0000000000e+00
3.5000000000e-01 1.0000000000e-02 0.0000000000e+00
3.6000000000e-01 1.0000000000e-02 0.0000000000e+00
3.7000000000e-01 1.0000000000e-02 0.0000000000e+00
3.8000000000e-01 1.0000000000e-02 0.0000000000e+00
3.9000000000e-01 1.0000000000e-02 0.0000000000e+00
4.0000000000e-01 1.0000000000e-02 0.0000000000e+00
4.1000000000e-01 1.0000000000e-02 0.0000000000e+00
4.2000000000e-01 1.0000000000e-02 0.0000000000e+00
4.3000000000e-01 1.0000000000e-02 0.0000000000e+00
4.4000000000e-01 1.0000000000e-02 0.0000000000e+00
4.5000000000e-01 1.0000000000e-02 0.0000000000e+00
4.6000000000e-01 1.0000000000e-02 0.0000000000e+00
4.7000000000e-01 1.0000000000e-02 0.0000000000e+00
4.8000000000e-01 1.0000000000e-02 0.0000000000e+00
4.9000000000e-01 1.0000000000e-02 0.0000000000e+00
5.0000000000e-01 1.0000000000e-02 0.0000000000e+00
5.1000000000e-01 1.0000000000e-02 0.0000000000e+00
5.2000000000e-01 1.0000000000e-02 0.0000000000e+00
5.3000000000e-01 1.0000000000e-02 0.0000000000e+00
5.4000000000e-01 1.0000000000e-02 0.0000000000e+00
5.5000000000e-01 1.0000000000e-02 0.0000000000e+00
5.6000000000e-01 1.0000000000e-02 0.0000000000e+00
5.7000000000e-01 1.0000000000e-02 0.0000000000e+00
5.8000000000e-01 1.0000000000e-02 0.0000000000e+00
5.9000000000e-01 1.0000000000e-02 0.0000000000e+00
6.0000000000e-01 1.0000000000e-02 0.0000000000e+00
6.1000000000e-01 1.0000000000e-02 0.0000000000e+00
6.2000000000e-01 1.0000000000e-02 0.0000000000e+00
6.3000000000e-01 1.0000000000e-02 0.0000000000e+00
6.4000000000e-01 1.0000000000e-02 0.0000000000e+00
6.5000000000e-01 1.0000000000e-02 0.0000000000e+00
6.6000000000e-01 1.0000000000e-02 0.0000000000e+00
6.7000000000e-01 1.0000000000e-02 0.0000000000e+00
6.8000000000e-01 1.0000000000e-02 0.0000000000e+00
6.9000000000e-01 1.0000000000e-02 0.0000000000e+00
7.0000000000e-01 1.0000000000e-02 0.0000000000e+00
7.1000000000e-01 1.0000000000e-02 0.0000000000e+00
7.2000000000e-01 1.0000000000e-02 0.0000000000e+00
7.3000000000e-01 1.0000000000e-02 0.0000000000e+00
7.4000000000e-01 1.0000000000e-02 0.0000000000e+00
7.5000000000e-01 1.0000000000e-02 0.0000000000e+00
7.6000000000e-01 1.0000000000e-02 0.0000000000e+00
7.7000000000e-01 1.0000000000e-02 0.0000000000e+00
7.8000000000e-01 1.0000000000e-02 0.0000000000e+00
7.9000000000e-01 1.0000000000e-02 0.0000000000e+00
8.0000000000e-01 1.0000000000e-02 0.0000000000e+00
8.1000000000e-01 1.0000000000e-02 0.0000000000e+00
8.2000000000e-01 1.0000000000e-02 0.0000000000e+00
8.3000000000e-01 1.0000000000e-02 0.0000000000e+00
8.4000000000e-01 1.0000000000e-02 0.0000000000e+00
8.5000000000e-01 1.0000000000e-02 0.0000000000e+00
8.6000000000e-01 1.0000000000e-02 0.0000000000e+00
8.7000000000e-01 1.0000000000e-02 0.0000000000e+00
8.8000000000e-01 1.0000000000e-02 0.0000000000e+00
8.9000000000e-01 1.0000000000e-02 0.0000000000e+00
9.0000000000e-01 1.0000000000e-02 0.0000000000e+00
9.1000000000e-01 1.0000000000e-02 0.0000000000e+00
9.2000000000e-01 1.0000000000e-02 0.0000000000e+00
[...]
CELL_DATA 10000

SCALARS massDensity float
LOOKUP_TABLE default
1.2004625633e+00
1.2004777396e+00
1.2005080474e+00
1.2005536729e+00
1.2006140739e+00
1.2006885281e+00
1.2007761503e+00
1.2008759136e+00
1.2009866692e+00
1.2011071711e+00
1.2012360979e+00
1.2013720794e+00
1.2015137181e+00
1.2016596146e+00
1.2018083878e+00
1.2019586968e+00
1.2021092585e+00
1.2022588649e+00
1.2024063959e+00
1.2025508319e+00
1.2026912612e+00
1.2028268875e+00
1.2029570315e+00
1.2030811332e+00
1.2031987495e+00
1.2033095512e+00
1.2034133172e+00
1.2035099281e+00
1.2035993573e+00
1.2036816633e+00
1.2037569788e+00
1.2038255018e+00
1.2038874849e+00
1.2039432260e+00
1.2039930587e+00
1.2040373429e+00
1.2040764571e+00
1.2041107900e+00
1.2041407342e+00
1.2041666794e+00
1.2041890079e+00
1.2042080895e+00
1.2042242778e+00
1.2042379077e+00
1.2042492925e+00
1.2042587229e+00
1.2042664656e+00
1.2042727629e+00
1.2042778331e+00
1.2042818704e+00
1.2042850461e+00
1.2042875095e+00
1.2042893895e+00
1.2042907956e+00
1.2042918201e+00
1.2042925392e+00
1.2042930155e+00
1.2042932988e+00
1.2042934283e+00
1.2042934340e+00
1.2042933383e+00
1.2042931570e+00
1.2042929009e+00
1.2042925767e+00
1.2042921880e+00
1.2042917362e+00
1.2042912213e+00
1.2042906425e+00
1.2042899986e+00
1.2042892889e+00
1.2042885133e+00
1.2042876730e+00
1.2042867703e+00
1.2042858096e+00
1.2042847969e+00
1.2042837407e+00
1.2042826513e+00
1.2042815417e+00
1.2042804270e+00
1.2042793247e+00
1.2042782542e+00
1.2042772369e+00
1.2042762955e+00
1.2042754541e+00
1.2042747377e+00
1.2042741714e+00
1.2042737810e+00
1.2042735919e+00
1.2042736300e+00
1.2042739212e+00
1.2042744926e+00
1.2042753720e+00
1.2042765880e+00
1.2042781688e+00
1.2042801387e+00
1.2042825131e+00
1.2042852898e+00
1.2042884387e+00
1.2042918867e+00
1.2042913239e+00
1.2004777396e+00
1.2004933041e+00
1.2005237646e+00
1.2005694643e+00
1.2006298480e+00
1.2007041878e+00
1.2007915996e+00
1.2008910589e+00
1.2010014234e+00
1.2011214529e+00
1.2012498347e+00
1.2013852054e+00
1.2015261765e+00
1.2016713558e+00
1.2018193713e+00
1.2019688898e+00
1.2021186377e+00
1.2022674149e+00
1.2024141115e+00
1.2025577164e+00
1.2026973281e+00
1.2028321590e+00
1.2029615397e+00
1.2030849188e+00
1.2032018620e+00
1.2033120478e+00
1.2034152624e+00
1.2035113921e+00
1.2036004158e+00
1.2036823953e+00
1.2037574661e+00
1.2038258267e+00
1.2038877295e+00
1.2039434703e+00
1.2039933791e+00
1.2040378113e+00
1.2040771392e+00
1.2041117446e+00
1.2041420121e+00
1.2041683232e+00
1.2041910511e+00
1.2042105565e+00
1.2042271844e+00
1.2042412609e+00
1.2042530915e+00
1.2042629595e+00
1.2042711252e+00
1.2042778259e+00
1.2042832750e+00
1.2042876640e+00
1.2042911617e+00
1.2042939166e+00
1.2042960570e+00
1.2042976936e+00
1.2042989197e+00
1.2042998140e+00
1.2043004413e+00
1.2043008544e+00
1.2043010957e+00
1.2043011984e+00
1.2043011882e+00
1.2043010842e+00
1.2043009001e+00
1.2043006457e+00
1.2043003271e+00
1.2042999482e+00
1.2042995111e+00
1.2042990166e+00
1.2042984653e+00
1.2042978573e+00
1.2042971934e+00
1.2042964750e+00
1.2042957044e+00
1.2042948851e+00
1.2042940224e+00
1.2042931228e+00
1.2042921946e+00
1.2042912478e+00
1.2042902942e+00
1.2042893470e+00
1.2042884211e+00
1.2042875324e+00
1.2042866982e+00
1.2042859364e+00
1.2042852654e+00
1.2042847041e+00
1.2042842712e+00
1.2042839856e+00
1.2042838660e+00
1.2042839311e+00
1.2042841992e+00
1.2042846889e+00
1.2042854176e+00
1.2042864015e+00
1.2042876527e+00
1.2042891766e+00
1.2042909673e+00
1.2042930024e+00
1.2042952353e+00
1.2042930412e+00
1.2005080474e+00
1.2005237646e+00
1.2005540169e+00
1.2005993791e+00
1.2006592987e+00
1.2007330546e+00
1.2008197688e+00
1.2009184274e+00
1.2010278970e+00
1.2011469497e+00
1.2012742835e+00
1.2014085482e+00
1.2015483662e+00
1.2016923589e+00
1.2018391649e+00
1.2019874641e+00
1.2021359926e+00
1.2022835625e+00
1.2024290725e+00
1.2025715219e+00
1.2027100168e+00
1.2028437776e+00
1.2029721408e+00
1.2030945609e+00
1.2032106073e+00
1.2033199621e+00
1.2034224129e+00
1.2035178474e+00
1.2036062439e+00
1.2036876632e+00
1.2037622385e+00
1.2038301655e+00
1.2038916928e+00
1.2039471120e+00
1.2039967482e+00
1.2040409519e+00
1.2040800899e+00
1.2041145388e+00
1.2041446779e+00
1.2041708836e+00
1.2041935244e+00
1.2042129566e+00
1.2042295213e+00
1.2042435412e+00
1.2042553190e+00
1.2042651356e+00
1.2042732498e+00
1.2042798972e+00
1.2042852910e+00
1.2042896218e+00
1.2042930589e+00
1.2042957505e+00
1.2042978259e+00
1.2042993959e+00
1.2043005550e+00
1.2043013822e+00
1.2043019432e+00
1.2043022913e+00
1.2043024695e+00
1.2043025114e+00
1.2043024430e+00
1.2043022835e+00
1.2043020469e+00
1.2043017428e+00
1.2043013773e+00
1.2043009543e+00
1.2043004754e+00
1.2042999416e+00
1.2042993530e+00
1.2042987097e+00
1.2042980124e+00
1.2042972622e+00
1.2042964614e+00
1.2042956137e+00
1.2042947239e+00
1.2042937989e+00
1.2042928467e+00
1.2042918775e+00
1.2042909027e+00
1.2042899357e+00
1.2042889907e+00
1.2042880838e+00
1.2042872315e+00
1.2042864514e+00
1.2042857614e+00
1.2042851794e+00
1.2042847236e+00
1.2042844118e+00
1.2042842614e+00
1.2042842892e+00
1.2042845114e+00
1.2042849429e+00
1.2042855972e+00
1.2042864847e+00
1.2042876114e+00
1.2042889762e+00
1.2042905675e+00
1.2042923591e+00
1.2042943046e+00
1.2042914564e+00
1.2005536729e+00
1.2005694643e+00
1.2005993791e+00
1.2006442149e+00
1.2007034261e+00
1.2007762987e+00
1.2008619674e+00
1.2009594292e+00
1.2010675671e+00
1.2011851674e+00
1.2013109462e+00
1.2014435693e+00
1.2015816783e+00
1.2017239105e+00
1.2018689238e+00
1.2020154131e+00
1.2021621328e+00
1.2023079087e+00
1.2024516553e+00
1.2025923840e+00
1.2027292138e+00
1.2028613745e+00
1.2029882128e+00
1.2031091894e+00
1.2032238805e+00
1.2033319716e+00
1.2034332538e+00
1.2035276153e+00
1.2036150348e+00
1.2036955709e+00
1.2037693544e+00
1.2038365770e+00
1.2038974827e+00
1.2039523575e+00
1.2040015205e+00
1.2040453154e+00
1.2040841027e+00
1.2041182519e+00
1.2041481357e+00
1.2041741239e+00
1.2041965789e+00
1.2042158514e+00
1.2042322772e+00
1.2042461745e+00
1.2042578420e+00
1.2042675575e+00
1.2042755768e+00
1.2042821338e+00
1.2042874399e+00
1.2042916848e+00
1.2042950371e+00
1.2042976450e+00
1.2042996376e+00
1.2043011260e+00
1.2043022050e+00
1.2043029542e+00
1.2043034396e+00
1.2043037151e+00
1.2043038240e+00
1.2043038002e+00
1.2043036700e+00
1.2043034528e+00
1.2043031627e+00
1.2043028092e+00
1.2043023984e+00
1.2043019340e+00
1.2043014177e+00
1.2043008501e+00
1.2043002312e+00
1.2042995611e+00
1.2042988401e+00
1.2042980694e+00
1.2042972512e+00
1.2042963890e+00
1.2042954876e+00
1.2042945537e+00
1.2042935955e+00
1.2042926227e+00
1.2042916468e+00
1.2042906805e+00
1.2042897383e+00
1.2042888353e+00
1.2042879878e+00
1.2042872124e+00
1.2042865265e+00
1.2042859470e+00
1.2042854911e+00
1.2042851751e+00
1.2042850150e+00
1.2042850256e+00
1.2042852206e+00
1.2042856121e+00
1.2042862098e+00
1.2042870202e+00
1.2042880453e+00
1.2042892807e+00
1.2042907135e+00
1.2042923201e+00
1.2042940642e+00
1.2042908679e+00
1.2006140739e+00
1.2006298480e+00
1.2006592987e+00
1.2007034261e+00
1.2007616914e+00
1.2008333933e+00
1.2009176788e+00
1.2010135635e+00
1.2011199470e+00
1.2012356378e+00
1.2013593719e+00
1.2014898391e+00
1.2016257021e+00
1.2017656231e+00
1.2019082806e+00
1.2020523937e+00
1.2021967357e+00
1.2023401545e+00
1.2024815815e+00
1.2026200467e+00
1.2027546827e+00
1.2028847345e+00
1.2030095584e+00
1.2031286262e+00
1.2032415200e+00
1.2033479319e+00
1.2034476553e+00
1.2035405807e+00
1.2036266858e+00
1.2037060281e+00
1.2037787343e+00
1.2038449920e+00
1.2039050389e+00
1.2039591546e+00
1.2040076508e+00
1.2040508634e+00
1.2040891447e+00
1.2041228560e+00
1.2041523619e+00
1.2041780243e+00
1.2042001981e+00
1.2042192271e+00
1.2042354407e+00
1.2042491514e+00
1.2042606530e+00
1.2042702189e+00
1.2042781016e+00
1.2042845318e+00
1.2042897190e+00
1.2042938512e+00
1.2042970956e+00
1.2042995999e+00
1.2043014926e+00
1.2043028850e+00
1.2043038716e+00
1.2043045325e+00
1.2043049337e+00
1.2043051295e+00
1.2043051635e+00
1.2043050699e+00
1.2043048750e+00
1.2043045985e+00
1.2043042544e+00
1.2043038523e+00
1.2043033983e+00
1.2043028960e+00
1.2043023468e+00
1.2043017513e+00
1.2043011093e+00
1.2043004209e+00
1.2042996861e+00
1.2042989061e+00
1.2042980828e+00
1.2042972197e+00
1.2042963215e+00
1.2042953948e+00
1.2042944473e+00
1.2042934888e+00
1.2042925303e+00
1.2042915845e+00
1.2042906649e+00
1.2042897864e+00
1.2042889643e+00
1.2042882149e+00
1.2042875541e+00
1.2042869982e+00
1.2042865627e+00
1.2042862628e+00
1.2042861126e+00
1.2042861250e+00
1.2042863115e+00
1.2042866815e+00
1.2042872420e+00
1.2042879967e+00
1.2042889453e+00
1.2042900822e+00
1.2042913959e+00
1.2042928680e+00
1.2042944738e+00
1.2042911976e+00
1.2006885281e+00
1.2007041878e+00
1.2007330546e+00
1.2007762987e+00
1.2008333933e+00
1.2009036490e+00
1.2009862320e+00
1.2010801759e+00
1.2011844048e+00
1.2012977500e+00
1.2014189756e+00
1.2015467965e+00
1.2016799056e+00
1.2018169904e+00
1.2019567596e+00
1.2020979566e+00
1.2022393829e+00
1.2023799085e+00
1.2025184895e+00
1.2026541744e+00
1.2027861165e+00
1.2029135748e+00
1.2030359213e+00
1.2031526373e+00
1.2032633154e+00
1.2033676526e+00
1.2034654475e+00
1.2035565915e+00
1.2036410628e+00
1.2037189158e+00
1.2037902739e+00
1.2038553187e+00
1.2039142817e+00
1.2039674343e+00
1.2040150798e+00
1.2040575450e+00
1.2040951726e+00
1.2041283145e+00
1.2041573256e+00
1.2041825590e+00
1.2042043605e+00
1.2042230661e+00
1.2042389974e+00
1.2042524604e+00
1.2042637428e+00
1.2042731129e+00
1.2042808189e+00
1.2042870879e+00
1.2042921263e+00
1.2042961201e+00
1.2042992347e+00
1.2043016166e+00
1.2043033936e+00
1.2043046764e+00
1.2043055595e+00
1.2043061225e+00
1.2043064319e+00
1.2043065420e+00
1.2043064965e+00
1.2043063297e+00
1.2043060682e+00
1.2043057316e+00
1.2043053340e+00
1.2043048849e+00
1.2043043906e+00
1.2043038541e+00
1.2043032773e+00
1.2043026602e+00
1.2043020029e+00
1.2043013047e+00
1.2043005661e+00
1.2042997877e+00
1.2042989715e+00
1.2042981207e+00
1.2042972399e+00
1.2042963353e+00
1.2042954146e+00
1.2042944870e+00
1.2042935634e+00
1.2042926556e+00
1.2042917769e+00
1.2042909413e+00
1.2042901635e+00
1.2042894586e+00
1.2042888418e+00
1.2042883278e+00
1.2042879311e+00
1.2042876651e+00
1.2042875424e+00
1.2042875740e+00
1.2042877693e+00
1.2042881355e+00
1.2042886774e+00
1.2042893971e+00
1.2042902930e+00
1.2042913597e+00
1.2042925879e+00
1.2042939646e+00
1.2042954751e+00
1.2042923420e+00
1.2007761503e+00
1.2007915996e+00
1.2008197688e+00
1.2008619674e+00
1.2009176788e+00
1.2009862320e+00
1.2010668111e+00
1.2011584752e+00
1.2012601727e+00
1.2013707658e+00
1.2014890466e+00
1.2016137644e+00
1.2017436417e+00
1.2018774014e+00
1.2020137817e+00
1.2021515599e+00
1.2022895652e+00
1.2024266981e+00
1.2025619389e+00
1.2026943622e+00
1.2028231406e+00
1.2029475541e+00
1.2030669886e+00
1.2031809401e+00
1.2032890099e+00
1.2033909037e+00
1.2034864236e+00
1.2035754640e+00
1.2036580017e+00
1.2037340896e+00
1.2038038458e+00
1.2038674463e+00
1.2039251142e+00
1.2039771128e+00
1.2040237352e+00
1.2040652981e+00
1.2041021334e+00
1.2041345823e+00
1.2041629891e+00
1.2041876962e+00
1.2042090400e+00
1.2042273468e+00
1.2042429300e+00
1.2042560876e+00
1.2042671007e+00
1.2042762316e+00
1.2042837231e+00
1.2042897984e+00
1.2042946602e+00
1.2042984916e+00
1.2043014561e+00
1.2043036984e+00
1.2043053451e+00
1.2043065062e+00
1.2043072755e+00
1.2043077328e+00
1.2043079439e+00
1.2043079634e+00
1.2043078349e+00
1.2043075929e+00
1.2043072638e+00
1.2043068674e+00
1.2043064177e+00
1.2043059243e+00
1.2043053931e+00
1.2043048274e+00
1.2043042286e+00
1.2043035970e+00
1.2043029320e+00
1.2043022333e+00
1.2043015007e+00
1.2043007349e+00
1.2042999376e+00
1.2042991119e+00
1.2042982619e+00
1.2042973936e+00
1.2042965143e+00
1.2042956330e+00
1.2042947597e+00
1.2042939061e+00
1.2042930844e+00
1.2042923080e+00
1.2042915907e+00
1.2042909466e+00
1.2042903896e+00
1.2042899333e+00
1.2042895908e+00
1.2042893740e+00
1.2042892937e+00
1.2042893592e+00
1.2042895781e+00
1.2042899559e+00
1.2042904959e+00
1.2042911986e+00
1.2042920622e+00
1.2042930818e+00
1.2042942505e+00
1.2042955597e+00
1.2042970017e+00
1.2042941933e+00
1.2008759136e+00
1.2008910589e+00
1.2009184274e+00
1.2009594292e+00
1.2010135635e+00
1.2010801759e+00
1.2011584752e+00
1.2012475451e+00
1.2013463660e+00
1.2014538300e+00
1.2015687665e+00
1.2016899577e+00
1.2018161658e+00
1.2019461478e+00
1.2020786809e+00
1.2022125753e+00
1.2023466966e+00
1.2024799751e+00
1.2026114230e+00
1.2027401398e+00
1.2028653246e+00
1.2029862762e+00
1.2031024005e+00
1.2032132063e+00
1.2033183081e+00
1.2034174181e+00
1.2035103451e+00
1.2035969845e+00
1.2036773138e+00
1.2037513821e+00
1.2038193032e+00
1.2038812455e+00
1.2039374244e+00
1.2039880926e+00
1.2040335331e+00
1.2040740507e+00
1.2041099659e+00
1.2041416077e+00
1.2041693086e+00
1.2041933998e+00
1.2042142065e+00
1.2042320448e+00
1.2042472187e+00
1.2042600176e+00
1.2042707149e+00
1.2042795662e+00
1.2042868086e+00
1.2042926601e+00
1.2042973197e+00
1.2043009669e+00
1.2043037627e+00
1.2043058498e+00
1.2043073534e+00
1.2043083821e+00
1.2043090294e+00
1.2043093740e+00
1.2043094820e+00
1.2043094073e+00
1.2043091938e+00
1.2043088756e+00
1.2043084793e+00
1.2043080245e+00
1.2043075253e+00
1.2043069910e+00
1.2043064277e+00
1.2043058382e+00
1.2043052242e+00
1.2043045852e+00
1.2043039211e+00
1.2043032308e+00
1.2043025143e+00
1.2043017719e+00
1.2043010050e+00
1.2043002162e+00
1.2042994097e+00
1.2042985908e+00
1.2042977665e+00
1.2042969451e+00
1.2042961362e+00
1.2042953505e+00
1.2042945998e+00
1.2042938964e+00
1.2042932532e+00
1.2042926831e+00
1.2042921990e+00
1.2042918130e+00
1.2042915369e+00
1.2042913811e+00
1.2042913549e+00
1.2042914659e+00
1.2042917202e+00
1.2042921218e+00
1.2042926727e+00
1.2042933726e+00
1.2042942194e+00
1.2042952090e+00
1.2042963362e+00
1.2042975957e+00
1.2042989840e+00
1.2042966457e+00
1.2009866692e+00
1.2010014234e+00
1.2010278970e+00
1.2010675671e+00
1.2011199470e+00
1.2011844048e+00
1.2012601727e+00
1.2013463660e+00
1.2014419955e+00
1.2015459920e+00
1.2016572201e+00
1.2017745047e+00
1.2018966455e+00
1.2020224432e+00
1.2021507122e+00
1.2022803051e+00
1.2024101219e+00
1.2025391311e+00
1.2026663751e+00
1.2027909858e+00
1.2029121864e+00
1.2030293014e+00
1.2031417542e+00
1.2032490718e+00
1.2033508792e+00
1.2034468994e+00
1.2035369453e+00
1.2036209161e+00
1.2036987877e+00
1.2037706071e+00
1.2038364817e+00
1.2038965731e+00
1.2039510869e+00
1.2040002655e+00
1.2040443799e+00
1.2040837229e+00
1.2041186017e+00
1.2041493328e+00
1.2041762357e+00
1.2041996292e+00
1.2042198266e+00
1.2042371329e+00
1.2042518418e+00
1.2042642335e+00
1.2042745727e+00
1.2042831077e+00
1.2042900692e+00
1.2042956700e+00
1.2043001041e+00
1.2043035477e+00
1.2043061585e+00
1.2043080769e+00
1.2043094263e+00
1.2043103140e+00
1.2043108321e+00
1.2043110592e+00
1.2043110604e+00
1.2043108897e+00
1.2043105903e+00
1.2043101966e+00
1.2043097346e+00
1.2043092242e+00
1.2043086790e+00
1.2043081087e+00
1.2043075185e+00
1.2043069118e+00
1.2043062894e+00
1.2043056513e+00
1.2043049964e+00
1.2043043241e+00
1.2043036335e+00
1.2043029249e+00
1.2043021992e+00
1.2043014589e+00
1.2043007074e+00
1.2042999498e+00
1.2042991923e+00
1.2042984427e+00
1.2042977100e+00
1.2042970041e+00
1.2042963357e+00
1.2042957165e+00
1.2042951581e+00
1.2042946723e+00
1.2042942707e+00
1.2042939643e+00
1.2042937634e+00
1.2042936769e+00
1.2042937128e+00
1.2042938772e+00
1.2042941747e+00
1.2042946082e+00
1.2042951786e+00
1.2042958850e+00
1.2042967252e+00
1.2042976954e+00
1.2042987917e+00
1.2043000106e+00
1.2043013509e+00
1.2042995956e+00
1.2011071711e+00
1.2011214529e+00
1.2011469497e+00
1.2011851674e+00
1.2012356378e+00
1.2012977500e+00
1.2013707658e+00
1.2014538300e+00
1.2015459920e+00
1.2016462186e+00
1.2017534188e+00
1.2018664575e+00
1.2019841815e+00
1.2021054324e+00
1.2022290716e+00
1.2023539908e+00
1.2024791338e+00
1.2026035045e+00
1.2027261836e+00
1.2028463326e+00
1.2029632062e+00
1.2030761515e+00
1.2031846154e+00
1.2032881403e+00
1.2033863665e+00
1.2034790250e+00
1.2035659363e+00
1.2036470009e+00
1.2037221954e+00
1.2037915623e+00
1.2038552040e+00
1.2039132733e+00
1.2039659664e+00
1.2040135138e+00
1.2040561745e+00
1.2040942277e+00
1.2041279671e+00
1.2041576951e+00
1.2041837179e+00
1.2042063408e+00
1.2042258645e+00
1.2042425821e+00
1.2042567763e+00
1.2042687172e+00
1.2042786605e+00
1.2042868466e+00
1.2042934993e+00
1.2042988253e+00
1.2043030139e+00
1.2043062367e+00
1.2043086486e+00
1.2043103868e+00
1.2043115730e+00
1.2043123126e+00
1.2043126968e+00
1.2043128028e+00
1.2043126956e+00
1.2043124282e+00
1.2043120438e+00
1.2043115763e+00
1.2043110518e+00
1.2043104895e+00
1.2043099033e+00
1.2043093021e+00
1.2043086917e+00
1.2043080745e+00
1.2043074517e+00
1.2043068224e+00
1.2043061858e+00
1.2043055403e+00
1.2043048854e+00
1.2043042204e+00
1.2043035463e+00
1.2043028646e+00
1.2043021786e+00
1.2043014925e+00
1.2043008122e+00
1.2043001444e+00
1.2042994976e+00
1.2042988806e+00
1.2042983035e+00
1.2042977766e+00
1.2042973106e+00
1.2042969160e+00
1.2042966033e+00
1.2042963822e+00
1.2042962614e+00
1.2042962488e+00
1.2042963508e+00
1.2042965723e+00
1.2042969168e+00
1.2042973858e+00
1.2042979796e+00
1.2042986966e+00
1.2042995344e+00
1.2043004896e+00
1.2043015587e+00
1.2043027392e+00
1.2043040305e+00
1.2043029414e+00
1.2012360979e+00
1.2012498347e+00
1.2012742835e+00
1.2013109462e+00
1.2013593719e+00
1.2014189756e+00
1.2014890466e+00
1.2015687665e+00
1.2016572201e+00
1.2017534188e+00
1.2018563128e+00
1.2019648160e+00
1.2020778189e+00
1.2021942137e+00
1.2023129048e+00
1.2024328326e+00
1.2025529811e+00
1.2026723980e+00
1.2027901989e+00
1.2029055826e+00
1.2030178318e+00
1.2031263228e+00
1.2032305228e+00
1.2033299947e+00
1.2034243912e+00
1.2035134554e+00
1.2035970126e+00
1.2036749675e+00
1.2037472948e+00
1.2038140345e+00
1.2038752819e+00
1.2039311819e+00
1.2039819194e+00
1.2040277137e+00
1.2040688099e+00
1.2041054736e+00
1.2041379839e+00
1.2041666288e+00
1.2041917000e+00
1.2042134887e+00
1.2042322826e+00
1.2042483620e+00
1.2042619980e+00
1.2042734501e+00
1.2042829646e+00
1.2042907735e+00
1.2042970930e+00
1.2043021237e+00
1.2043060493e+00
1.2043090374e+00
1.2043112385e+00
1.2043127877e+00
1.2043138035e+00
1.2043143902e+00
1.2043146370e+00
1.2043146206e+00
1.2043144045e+00
1.2043140416e+00
1.2043135743e+00
1.2043130363e+00
1.2043124532e+00
1.2043118442e+00
1.2043112224e+00
1.2043105971e+00
1.2043099732e+00
1.2043093533e+00
1.2043087377e+00
1.2043081258e+00
1.2043075159e+00
1.2043069066e+00
1.2043062962e+00
1.2043056842e+00
1.2043050706e+00
1.2043044568e+00
1.2043038451e+00
1.2043032393e+00
1.2043026442e+00
1.2043020662e+00
1.2043015125e+00
1.2043009912e+00
1.2043005111e+00
1.2043000817e+00
1.2042997124e+00
1.2042994127e+00
1.2042991916e+00
1.2042990576e+00
1.2042990182e+00
1.2042990800e+00
1.2042992481e+00
1.2042995262e+00
1.2042999167e+00
1.2043004203e+00
1.2043010364e+00
1.2043017630e+00
1.2043025973e+00
1.2043035360e+00
1.2043045756e+00
1.2043057138e+00
1.2043069499e+00
1.2043065815e+00
1.2013720794e+00
1.2013852054e+00
1.2014085482e+00
1.2014435693e+00
1.2014898391e+00
1.2015467965e+00
1.2016137644e+00
1.2016899577e+00
1.2017745047e+00
1.2018664575e+00
1.2019648160e+00
1.2020685393e+00
1.2021765707e+00
1.2022878484e+00
1.2024013294e+00
1.2025159982e+00
1.2026308879e+00
1.2027450857e+00
1.2028577503e+00
1.2029681136e+00
1.2030754932e+00
1.2031792909e+00
1.2032790000e+00
1.2033742007e+00
1.2034645624e+00
1.2035498373e+00
1.2036298589e+00
1.2037045334e+00
1.2037738361e+00
1.2038378021e+00
1.2038965211e+00
1.2039501281e+00
1.2039987979e+00
1.2040427363e+00
1.2040821754e+00
1.2041173657e+00
1.2041485716e+00
1.2041760656e+00
1.2042001247e+00
1.2042210256e+00
1.2042390420e+00
1.2042544411e+00
1.2042674821e+00
1.2042784133e+00
1.2042874712e+00
1.2042948787e+00
1.2043008448e+00
1.2043055629e+00
1.2043092116e+00
1.2043119532e+00
1.2043139348e+00
1.2043152878e+00
1.2043161288e+00
1.2043165593e+00
1.2043166676e+00
1.2043165284e+00
1.2043162050e+00
1.2043157489e+00
1.2043152023e+00
1.2043145981e+00
1.2043139617e+00
1.2043133116e+00
1.2043126610e+00
1.2043120183e+00
1.2043113885e+00
1.2043107733e+00
1.2043101733e+00
1.2043095867e+00
1.2043090121e+00
1.2043084469e+00
1.2043078896e+00
1.2043073386e+00