# vtk DataFile Version 2.0
Blank
ASCII
DATASET STRUCTURED_GRID
DIMENSIONS 101 101 2
POINTS 20402 float
0.0000000000e+00 0.0000000000e+00 0.0000000000e+00
1.0000000000e-02 0.0000000000e+00 0.0000000000e+00
2.0000000000e-02 0.0000000000e+00 0.0000000000e+00
3.0000000000e-02 0.0000000000e+00 0.0000000000e+00
4.0000000000e-02 0.0000000000e+00 0.0000000000e+00
5.0000000000e-02 0.0000000000e+00 0.0000000000e+00
6.0000000000e-02 0.0000000000e+00 0.0000000000e+00
7.0000000000e-02 0.0000000000e+00 0.0000000000e+00
8.0000000000e-02 0.0000000000e+00 0.0000000000e+00
9.0000000000e-02 0.0000000000e+00 0.0000000000e+00
1.0000000000e-01 0.0000000000e+00 0.0000000000e+00
1.1000000000e-01 0.0000000000e+00 0.0000000000e+00
1.2000000000e-01 0.0000000000e+00 0.0000000000e+00
1.3000000000e-01 0.0000000000e+00 0.0000000000e+00
1.4000000000e-01 0.0000000000e+00 0.0000000000e+00
1.5000000000e-01 0.0000000000e+00 0.0000000000e+00
1.6000000000e-01 0.0000000000e+00 0.0000000000e+00
1.7000000000e-01 0.0000000000e+00 0.0000000000e+00
1.8000000000e-01 0.0000000000e+00 0.0000000000e+00
1.9000000000e-01 0.0000000000e+00 0.0000000000e+00
2.0000000000e-01 0.0000000000e+00 0.0000000000e+00
2.1000000000e-01 0.0000000000e+00 0.0000000000e+00
2.2000000000e-01 0.0000000000e+00 0.0000000000e+00
2.3000000000e-01 0.0000000000e+00 0.0000000000e+00
2.4000000000e-01 0.0000000000e+00 0.0000000000e+00
2.5000000000e-01 0.0000000000e+00 0.0000000000e+00
2.6000000000e-01 0.0000000000e+00 0.0000000000e+00
2.7000000000e-01 0.0000000000e+00 0.0000000000e+00
2.8000000000e-01 0.0000000000e+00 0.0000000000e+00
2.9000000000e-01 0.0000000000e+00 0.0000000000e+00
3.0000000000e-01 0.0000000000e+00 0.0000000000e+00
3.1000000000e-01 0.0000000000e+00 0.0000000000e+00
3.2000000000e-01 0.0000000000e+00 0.0000000000e+00
3.3000000000e-01 0.0000000000e+00 0.0000000000e+00
3.4000000000e-01 0.0000000000e+00 0.0000000000e+00
3.5000000000e-01 0.0000000000e+00 0.0000000000e+00
3.6000000000e-01 0.0000000000e+00 0.0000000000e+00
3.7000000000e-01 0.0000000000e+00 0.0000000000e+00
3.8000000000e-01 0.0000000000e+00 0.0000000000e+00
3.9000000000e-01 0.0000000000e+00 0.0000000000e+00
4.0000000000e-01 0.0000000000e+00 0.0000000000e+00
4.1000000000e-01 0.0000000000e+00 0.0000000000e+00
4.2000000000e-01 0.0000000000e+00 0.0000000000e+00
4.3000000000e-01 0.0000000000e+00 0.0000000000e+00
4.4000000000e-01 0.0000000000e+00 0.0000000000e+00
4.5000000000e-01 0.0000000000e+00 0.0000000000e+00
4.6000000000e-01 0.0000000000e+00 0.0000000000e+00
4.7000000000e-01 0.0000000000e+00 0.0000000000e+00
4.8000000000e-01 0.0000000000e+00 0.0000000000e+00
4.9000000000e-01 0.0000000000e+00 0.0000000000e+00
5.0000000000e-01 0.0000000000e+00 0.0000000000e+00
5.1000000000e-01 0.0000000000e+00 0.0000000000e+00
5.2000000000e-01 0.0000000000e+00 0.0000000000e+00
5.3000000000e-01 0.0000000000e+00 0.0000000000e+00
5.4000000000e-01 0.0000000000e+00 0.0000000000e+00
5.5000000000e-01 0.0000000000e+00 0.0000000000e+00
5.6000000000e-01 0.0000000000e+00 0.0000000000e+00
5.7000000000e-01 0.0000000000e+00 0.0000000000e+00
5.8000000000e-01 0.0000000000e+00 0.0000000000e+00
5.9000000000e-01 0.0000000000e+00 0.0000000000e+00
6.0000000000e-01 0.0000000000e+00 0.0000000000e+00
6.1000000000e-01 0.0000000000e+00 0.0000000000e+00
6.2000000000e-01 0.0000000000e+00 0.0000000000e+00
6.3000000000e-01 0.0000000000e+00 0.0000000000e+00
6.4000000000e-01 0.0000000000e+00 0.0000000000e+00
6.5000000000e-01 0.0000000000e+00 0.0000000000e+00
6.6000000000e-01 0.0000000000e+00 0.0000000000e+00
6.7000000000e-01 0.0000000000e+00 0.0000000000e+00
6.8000000000e-01 0.0000000000e+00 0.0000000000e+00
6.9000000000e-01 0.0000000000e+00 0.0000000000e+00
7.0000000000e-01 0.0000000000e+00 0.0000000000e+00
7.1000000000e-01 0.0000000000e+00 0.0000000000e+00
7.2000000000e-01 0.0000000000e+00 0.0000000000e+00
7.3000000000e-01 0.0000000000e+00 0.0000000000e+00
7.4000000000e-01 0.0000000000e+00 0.0000000000e+00
7.5000000000e-01 0.0000000000e+00 0.0000000000e+00
7.6000000000e-01 0.0000000000e+00 0.0000000000e+00
7.7000000000e-01 0.0000000000e+00 0.0000000000e+00
7.8000000000e-01 0.0000000000e+00 0.0000000000e+00
7.9000000000e-01 0.0000000000e+00 0.0000000000e+00
8.0000000000e-01 0.0000000000e+00 0.0000000000e+00
8.1000000000e-01 0.0000000000e+00 0.0000000000e+00
8.2000000000e-01 0.0000000000e+00 0.0000000000e+00
8.3000000000e-01 0.0000000000e+00 0.0000000000e+00
8.4000000000e-01 0.0000000000e+00 0.0000000000e+00
8.5000000000e-01 0.0000000000e+00 0.0000000000e+00
8.6000000000e-01 0.0000000000e+00 0.0000000000e+00
8.7000000000e-01 0.0000000000e+00 0.0000000000e+00
8.8000000000e-01 0.0000000000e+00 0.0000000000e+00
8.9000000000e-01 0.0000000000e+00 0.0000000000e+00
9.0000000000e-01 0.0000000000e+00 0.0000000000e+00
9.1000000000e-01 0.0000000000e+00 0.0000000000e+00
9.2000000000e-01 0.0000000000e+00 0.0000000000e+00
9.3000000000e-01 0.0000000000e+00 0.0000000000e+00
9.4000000000e-01 0.0000000000e+00 0.0000000000e+00
9.5000000000e-01 0.0000000000e+00 0.0000000000e+00
9.6000000000e-01 0.0000000000e+00 0.0000000000e+00
9.7000000000e-01 0.0000000000e+00 0.0000000000e+00
9.8000000000e-01 0.0000000000e+00 0.0000000000e+00
9.9000000000e-01 0.0000000000e+00 0.0000000000e+00
1.0000000000e+00 0.0000000000e+00 0.0000000000e+00
0.0000000000e+00 1.0000000000e-02 0.0000000000e+00
1.0000000000e-02 1.0000000000e-02 0.0000000000e+00
2.0000000000e-02 1.0000000000e-02 0.0000000000e+00
3.0000000000e-02 1.0000000000e-02 0.0000000000e+00
4.0000000000e-02 1.0000000000e-02 0.0000000000e+00
5.0000000000e-02 1.0000000000e-02 0.0000000000e+00
6.0000000000e-02 1.0000000000e-02 0.0000000000e+00
7.0000000000e-02 1.0000000000e-02 0.0000000000e+00
8.0000000000e-02 1.0000000000e-02 0.0000000000e+00
9.0000000000e-02 1.0000000000e-02 0.0000000000e+00
1.0000000000e-01 1.0000000000e-02 0.0000000000e+00
1.1000000000e-01 1.0000000000e-02 0.0000000000e+00
1.2000000000e-01 1.0000000000e-02 0.0000000000e+00
1.3000000000e-01 1.0000000000e-02 0.0000000000e+00
1.4000000000e-01 1.0000000000e-02 0.0000000000e+00
1.5000000000e-01 1.0000000000e-02 0.0000000000e+00
1.6000000000e-01 1.0000000000e-02 0.0000000000e+00
1.7000000000e-01 1.0000000000e-02 0.0000000000e+00
1.8000000000e-01 1.0000000000e-02 0.0000000000e+00
1.9000000000e-01 1.0000000000e-02 0.0000000000e+00
2.0000000000e-01 1.0000000000e-02 0.0000000000e+00
2.1000000000e-01 1.0000000000e-02 0.0000000000e+00
2.2000000000e-01 1.0000000000e-02 0.0000000000e+00
2.3000000000e-01 1.0000000000e-02 0.0000000000e+00
2.4000000000e-01 1.0000000000e-02 0.0000000000e+00
2.5000000000e-01 1.0000000000e-02 0.0000000000e+00
2.6000000000e-01 1.0000000000e-02 0.0000000000e+00
2.7000000000e-01 1.0000000000e-02 0.0000000000e+00
2.8000000000e-01 1.0000000000e-02 0.0000000000e+00
2.9000000000e-01 1.0000000000e-02 0.0000000000e+00
3.0000000000e-01 1.0000000000e-02 0.0000000000e+00
3.1000000000e-01 1.0000000000e-02 0.0000000000e+00
3.2000000000e-01 1.0000000000e-02 0.0000000000e+00
3.3000000000e-01 1.0000000000e-02 0.0000000000e+00
3.4000000000e-01 1.0000000000e-02 0.0000000000e+00
3.5000000000e-01 1.0000000000e-02 0.0000000000e+00
3.6000000000e-01 1.0000000000e-02 0.0000000000e+00
3.7000000000e-01 1.0000000000e-02 0.0000000000e+00
3.8000000000e-01 1.0000000000e-02 0.0000000000e+00
3.9000000000e-01 1.0000000000e-02 0.0000000000e+00
4.0000000000e-01 1.0000000000e-02 0.0000000000e+00
4.1000000000e-01 1.0000000000e-02 0.0000000000e+00
4.2000000000e-01 1.0000000000e-02 0.0000000000e+00
4.3000000000e-01 1.0000000000e-02 0.0000000000e+00
4.4000000000e-01 1.0000000000e-02 0.0000000000e+00
4.5000000000e-01 1.0000000000e-02 0.0000000000e+00
4.6000000000e-01 1.0000000000e-02 0.0000000000e+00
4.7000000000e-01 1.0000000000e-02 0.0000000000e+00
4.8000000000e-01 1.0000000000e-02 0.0000000000e+00
4.9000000000e-01 1.0000000000e-02 0.0000000000e+00
5.0000000000e-01 1.0000000000e-02 0.0000000000e+00
5.1000000000e-01 1.0000000000e-02 0.0000000000e+00
5.2000000000e-01 1.0000000000e-02 0.0000000000e+00
5.3000000000e-01 1.0000000000e-02 0.0000000000e+00
5.4000000000e-01 1.0000000000e-02 0.0000000000e+00
5.5000000000e-01 1.0000000000e-02 0.0000000000e+00
5.6000000000e-01 1.0000000000e-02 0.0000000000e+00
5.7000000000e-01 1.0000000000e-02 0.0000000000e+00
5.8000000000e-01 1.0000000000e-02 0.0000000000e+00
5.9000000000e-01 1.0000000000e-02 0.0000000000e+00
6.0000000000e-01 1.0000000000e-02 0.0000000000e+00
6.1000000000e-01 1.0000000000e-02 0.0000000000e+00
6.2000000000e-01 1.0000000000e-02 0.0000000000e+00
6.3000000000e-01 1.0000000000e-02 0.0000000000e+00
6.4000000000e-01 1.0000000000e-02 0.0000000000e+00
6.5000000000e-01 1.0000000000e-02 0.0000000000e+00
6.6000000000e-01 1.0000000000e-02 0.0000000000e+00
6.7000000000e-01 1.0000000000e-02 0.0000000000e+00
6.8000000000e-01 1.0000000000e-02 0.0000000000e+00
6.9000000000e-01 1.0000000000e-02 0.0000000000e+00
7.0000000000e-01 1.0000000000e-02 0.0000000000e+00
7.1000000000e-01 1.0000000000e-02 0.0000000000e+00
7.2000000000e-01 1.0000000000e-02 0.0000000000e+00
7.3000000000e-01 1.0000000000e-02 0.0000000000e+00
7.4000000000e-01 1.0000000000e-02 0.0000000000e+00
7.5000000000e-01 1.0000000000e-02 0.0000000000e+00
7.6000000000e-01 1.0000000000e-02 0.0000000000e+00
7.7000000000e-01 1.0000000000e-02 0.0000000000e+00
7.8000000000e-01 1.0000000000e-02 0.0000000000e+00
7.9000000000e-01 1.0000000000e-02 0.0000000000e+00
8.0000000000e-01 1.0000000000e-02 0.0000000000e+00
8.1000000000e-01 1.0000000000e-02 0.0000000000e+00
8.2000000000e-01 1.0000000000e-02 0.0000000000e+00
8.3000000000e-01 1.0000000000e-02 0.0000000000e+00
8.4000000000e-01 1.0000000000e-02 0.0000000000e+00
8.5000000000e-01 1.0000000000e-02 0.0000000000e+00
8.6000000000e-01 1.0000000000e-02 0.0000000000e+00
8.7000000000e-01 1.0000000000e-02 0.0000000000e+00
8.8000000000e-01 1.0000000000e-02 0.0000000000e+00
8.9000000000e-01 1.0000000000e-02 0.0000000000e+00
9.0000000000e-01 1.0000000000e-02 0.0000000000e+00
9.1000000000e-01 1.0000000000e-02 0.0000000000e+00
9.2000000000e-01 1.0000000000e-02 0.0000000000e+00
[...]
CELL_DATA 10000

SCALARS massDensity float
LOOKUP_TABLE default
1.1884769177e+00
1.1888077764e+00
1.1892766653e+00
1.1899641898e+00
1.1908370235e+00
1.1918552089e+00
1.1929752017e+00
1.1941525281e+00
1.1953446988e+00
1.1965133266e+00
1.1976261113e+00
1.1986577742e+00
1.1995906961e+00
1.2004145772e+00
1.2011259067e+00
1.2017267651e+00
1.2022236868e+00
1.2026262228e+00
1.2029457900e+00
1.2031944912e+00
1.2033843229e+00
1.2035264727e+00
1.2036309746e+00
1.2037064520e+00
1.2037601168e+00
1.2037978002e+00
1.2038241289e+00
1.2038426797e+00
1.2038561944e+00
1.2038667479e+00
1.2038759267e+00
1.2038849610e+00
1.2038948445e+00
1.2039064231e+00
1.2039204606e+00
1.2039376954e+00
1.2039588655e+00
1.2039847445e+00
1.2040161377e+00
1.2040539025e+00
1.2040989164e+00
1.2041520785e+00
1.2042142406e+00
1.2042861752e+00
1.2043684528e+00
1.2044613603e+00
1.2045647155e+00
1.2046777472e+00
1.2047988811e+00
1.2049256498e+00
1.2050545558e+00
1.2051811490e+00
1.2053001117e+00
1.2054056358e+00
1.2054917993e+00
1.2055532243e+00
1.2055856014e+00
1.2055863690e+00
1.2055550299e+00
1.2054934644e+00
1.2054057025e+00
1.2052976599e+00
1.2051763645e+00
1.2050493119e+00
1.2049235484e+00
1.2048051210e+00
1.2046985087e+00
1.2046065206e+00
1.2045302635e+00
1.2044694609e+00
1.2044227668e+00
1.2043882141e+00
1.2043635558e+00
1.2043465838e+00
1.2043353108e+00
1.2043280862e+00
1.2043236170e+00
1.2043209493e+00
1.2043194123e+00
1.2043185580e+00
1.2043180998e+00
1.2043178627e+00
1.2043177445e+00
1.2043176876e+00
1.2043176613e+00
1.2043176495e+00
1.2043176444e+00
1.2043176423e+00
1.2043176415e+00
1.2043176412e+00
1.2043176411e+00
1.2043176410e+00
1.2043176410e+00
1.2043176410e+00
1.2043176410e+00
1.2043176410e+00
1.2043176410e+00
1.2043176410e+00
1.2043176410e+00
1.2043176410e+00
1.1888077764e+00
1.1891536706e+00
1.1896244989e+00
1.1903069690e+00
1.1911695043e+00
1.1921737748e+00
1.1932773060e+00
1.1944367760e+00
1.1956103914e+00
1.1967606060e+00
1.1978555500e+00
1.1988705074e+00
1.1997880577e+00
1.2005982065e+00
1.2012974469e+00
1.2018879547e+00
1.2023761312e+00
1.2027714798e+00
1.2030852114e+00
1.2033293072e+00
1.2035155413e+00
1.2036549581e+00
1.2037573870e+00
1.2038313163e+00
1.2038837843e+00
1.2039205030e+00
1.2039459525e+00
1.2039635983e+00
1.2039760492e+00
1.2039852630e+00
1.2039926892e+00
1.2039994201e+00
1.2040062919e+00
1.2040139764e+00
1.2040230456e+00
1.2040340157e+00
1.2040473887e+00
1.2040636634e+00
1.2040833663e+00
1.2041070401e+00
1.2041352704e+00
1.2041686561e+00
1.2042078302e+00
1.2042534051e+00
1.2043059748e+00
1.2043660160e+00
1.2044338497e+00
1.2045094798e+00
1.2045925079e+00
1.2046819254e+00
1.2047760318e+00
1.2048722713e+00
1.2049672819e+00
1.2050569193e+00
1.2051365755e+00
1.2052014704e+00
1.2052472395e+00
1.2052703660e+00
1.2052688034e+00
1.2052422105e+00
1.2051922510e+00
1.2051223245e+00
1.2050373635e+00
1.2049430904e+00
1.2048455180e+00
1.2047501268e+00
1.2046614954e+00
1.2045828273e+00
1.2045159754e+00
1.2044614349e+00
1.2044186814e+00
1.2043864254e+00
1.2043629988e+00
1.2043466014e+00
1.2043355418e+00
1.2043283481e+00
1.2043238371e+00
1.2043211086e+00
1.2043195172e+00
1.2043186221e+00
1.2043181366e+00
1.2043178828e+00
1.2043177549e+00
1.2043176927e+00
1.2043176637e+00
1.2043176506e+00
1.2043176449e+00
1.2043176425e+00
1.2043176416e+00
1.2043176412e+00
1.2043176411e+00
1.2043176410e+00
1.2043176410e+00
1.2043176410e+00
1.2043176410e+00
1.2043176410e+00
1.2043176410e+00
1.2043176410e+00
1.2043176410e+00
1.2043176410e+00
1.1892766653e+00
1.1896244989e+00
1.1900843677e+00
1.1907477036e+00
1.1915845378e+00
1.1925578863e+00
1.1936270358e+00
1.1947499556e+00
1.1958864674e+00
1.1970000577e+00
1.1980600964e+00
1.1990424977e+00
1.1999305847e+00
1.2007145578e+00
1.2013911785e+00
1.2019624629e+00
1.2024347305e+00
1.2028171149e+00
1.2031205582e+00
1.2033566065e+00
1.2035367170e+00
1.2036715372e+00
1.2037706191e+00
1.2038421411e+00
1.2038929373e+00
1.2039285039e+00
1.2039531873e+00
1.2039703143e+00
1.2039824106e+00
1.2039913473e+00
1.2039985199e+00
1.2040049623e+00
1.2040114665e+00
1.2040186571e+00
1.2040270575e+00
1.2040371351e+00
1.2040493288e+00
1.2040640792e+00
1.2040818312e+00
1.2041030607e+00
1.2041282631e+00
1.2041579825e+00
1.2041927894e+00
1.2042333083e+00
1.2042801721e+00
1.2043340241e+00
1.2043954171e+00
1.2044647536e+00
1.2045420992e+00
1.2046270510e+00
1.2047184955e+00
1.2048144841e+00
1.2049120707e+00
1.2050073739e+00
1.2050956801e+00
1.2051718508e+00
1.2052307500e+00
1.2052679373e+00
1.2052801876e+00
1.2052661233e+00
1.2052263858e+00
1.2051638014e+00
1.2050829194e+00
1.2049896318e+00
1.2048902640e+00
1.2047910106e+00
1.2046971058e+00
1.2046125484e+00
1.2045397548e+00
1.2044797367e+00
1.2044322220e+00
1.2043960818e+00
1.2043696280e+00
1.2043509927e+00
1.2043383441e+00
1.2043300743e+00
1.2043248618e+00
1.2043216957e+00
1.2043198414e+00
1.2043187948e+00
1.2043182253e+00
1.2043179267e+00
1.2043177758e+00
1.2043177024e+00
1.2043176679e+00
1.2043176524e+00
1.2043176456e+00
1.2043176428e+00
1.2043176417e+00
1.2043176413e+00
1.2043176411e+00
1.2043176410e+00
1.2043176410e+00
1.2043176410e+00
1.2043176410e+00
1.2043176410e+00
1.2043176410e+00
1.2043176410e+00
1.2043176410e+00
1.2043176410e+00
1.1899641898e+00
1.1903069690e+00
1.1907477036e+00
1.1913817271e+00
1.1921803541e+00
1.1931086926e+00
1.1941278035e+00
1.1951979812e+00
1.1962807430e+00
1.1973416009e+00
1.1983511705e+00
1.1992867630e+00
1.2001323224e+00
1.2008787252e+00
1.2015227591e+00
1.2020665094e+00
1.2025159022e+00
1.2028797574e+00
1.2031684268e+00
1.2033929890e+00
1.2035643008e+00
1.2036925546e+00
1.2037868023e+00
1.2038548640e+00
1.2039032107e+00
1.2039370939e+00
1.2039606225e+00
1.2039769725e+00
1.2039885246e+00
1.2039970611e+00
1.2040038895e+00
1.2040099875e+00
1.2040160884e+00
1.2040227701e+00
1.2040305072e+00
1.2040397145e+00
1.2040507786e+00
1.2040640728e+00
1.2040799808e+00
1.2040988968e+00
1.2041212546e+00
1.2041475229e+00
1.2041782454e+00
1.2042140312e+00
1.2042555908e+00
1.2043036954e+00
1.2043591651e+00
1.2044227429e+00
1.2044949821e+00
1.2045760030e+00
1.2046652859e+00
1.2047613857e+00
1.2048617754e+00
1.2049627281e+00
1.2050594563e+00
1.2051463758e+00
1.2052176785e+00
1.2052679448e+00
1.2052929561e+00
1.2052902525e+00
1.2052596989e+00
1.2052034676e+00
1.2051259732e+00
1.2050331300e+00
1.2049317741e+00
1.2048286115e+00
1.2047296608e+00
1.2046395078e+00
1.2045612064e+00
1.2044961214e+00
1.2044442788e+00
1.2044046137e+00
1.2043754527e+00
1.2043548202e+00
1.2043407721e+00
1.2043315573e+00
1.2043257364e+00
1.2043221923e+00
1.2043201136e+00
1.2043189385e+00
1.2043182984e+00
1.2043179625e+00
1.2043177927e+00
1.2043177100e+00
1.2043176713e+00
1.2043176538e+00
1.2043176462e+00
1.2043176430e+00
1.2043176418e+00
1.2043176413e+00
1.2043176411e+00
1.2043176410e+00
1.2043176410e+00
1.2043176410e+00
1.2043176410e+00
1.2043176410e+00
1.2043176410e+00
1.2043176410e+00
1.2043176410e+00
1.2043176410e+00
1.1908370235e+00
1.1911695043e+00
1.1915845378e+00
1.1921803541e+00
1.1929302346e+00
1.1938012171e+00
1.1947571191e+00
1.1957604606e+00
1.1967755057e+00
1.1977696729e+00
1.1987157318e+00
1.1995921988e+00
1.2003842927e+00
1.2010832946e+00
1.2016864066e+00
1.2021954590e+00
1.2026161628e+00
1.2029566917e+00
1.2032268548e+00
1.2034369638e+00
1.2035972618e+00
1.2037172446e+00
1.2038054366e+00
1.2038691211e+00
1.2039143865e+00
1.2039461186e+00
1.2039681811e+00
1.2039835228e+00
1.2039943807e+00
1.2040024032e+00
1.2040088157e+00
1.2040145153e+00
1.2040201820e+00
1.2040263382e+00
1.2040334106e+00
1.2040417641e+00
1.2040517295e+00
1.2040636243e+00
1.2040777622e+00
1.2040944767e+00
1.2041141262e+00
1.2041371335e+00
1.2041639979e+00
1.2041953490e+00
1.2042319522e+00
1.2042747437e+00
1.2043247761e+00
1.2043831613e+00
1.2044508839e+00
1.2045285936e+00
1.2046162823e+00
1.2047129908e+00
1.2048165106e+00
1.2049232507e+00
1.2050282568e+00
1.2051255249e+00
1.2052085150e+00
1.2052709444e+00
1.2053075715e+00
1.2053150681e+00
1.2052924814e+00
1.2052415977e+00
1.2051665911e+00
1.2050736515e+00
1.2049699366e+00
1.2048628540e+00
1.2047589698e+00
1.2046635769e+00
1.2045801478e+00
1.2045104724e+00
1.2044547212e+00
1.2044119423e+00
1.2043803976e+00
1.2043580409e+00
1.2043427897e+00
1.2043327778e+00
1.2043264464e+00
1.2043225911e+00
1.2043203290e+00
1.2043190507e+00
1.2043183546e+00
1.2043179896e+00
1.2043178053e+00
1.2043177156e+00
1.2043176737e+00
1.2043176548e+00
1.2043176466e+00
1.2043176432e+00
1.2043176418e+00
1.2043176413e+00
1.2043176411e+00
1.2043176410e+00
1.2043176410e+00
1.2043176410e+00
1.2043176410e+00
1.2043176410e+00
1.2043176410e+00
1.2043176410e+00
1.2043176410e+00
1.2043176410e+00
1.1918552089e+00
1.1921737748e+00
1.1925578863e+00
1.1931086926e+00
1.1938012171e+00
1.1946053099e+00
1.1954872878e+00
1.1964129199e+00
1.1973489479e+00
1.1982656701e+00
1.1991377110e+00
1.1999455736e+00
1.2006754177e+00
1.2013194634e+00
1.2018749737e+00
1.2023438339e+00
1.2027311942e+00
1.2030447297e+00
1.2032933979e+00
1.2034867966e+00
1.2036343030e+00
1.2037447278e+00
1.2038258774e+00
1.2038845000e+00
1.2039261675e+00
1.2039554040e+00
1.2039757399e+00
1.2039899053e+00
1.2039999384e+00
1.2040073648e+00
1.2040132949e+00
1.2040185557e+00
1.2040237570e+00
1.2040293719e+00
1.2040357744e+00
1.2040432809e+00
1.2040521700e+00
1.2040627005e+00
1.2040751284e+00
1.2040897185e+00
1.2041067757e+00
1.2041266665e+00
1.2041498762e+00
1.2041770426e+00
1.2042090224e+00
1.2042468992e+00
1.2042919908e+00
1.2043457457e+00
1.2044095926e+00
1.2044846534e+00
1.2045714100e+00
1.2046693053e+00
1.2047764015e+00
1.2048891518e+00
1.2050023999e+00
1.2051096551e+00
1.2052036840e+00
1.2052773141e+00
1.2053244337e+00
1.2053408347e+00
1.2053249996e+00
1.2052782704e+00
1.2052048687e+00
1.2051111068e+00
1.2050047136e+00
1.2048935588e+00
1.2047849324e+00
1.2046845718e+00
1.2045964778e+00
1.2045226510e+00
1.2044634769e+00
1.2044179847e+00
1.2043844218e+00
1.2043606143e+00
1.2043443783e+00
1.2043337192e+00
1.2043269848e+00
1.2043228865e+00
1.2043204852e+00
1.2043191298e+00
1.2043183932e+00
1.2043180077e+00
1.2043178134e+00
1.2043177191e+00
1.2043176751e+00
1.2043176553e+00
1.2043176468e+00
1.2043176433e+00
1.2043176418e+00
1.2043176413e+00
1.2043176411e+00
1.2043176410e+00
1.2043176410e+00
1.2043176410e+00
1.2043176410e+00
1.2043176410e+00
1.2043176410e+00
1.2043176410e+00
1.2043176410e+00
1.2043176410e+00
1.1929752017e+00
1.1932773060e+00
1.1936270358e+00
1.1941278035e+00
1.1947571191e+00
1.1954872878e+00
1.1962880474e+00
1.1971280050e+00
1.1979773348e+00
1.1988087860e+00
1.1995996792e+00
1.2003320772e+00
1.2009937228e+00
1.2015773678e+00
1.2020807658e+00
1.2025054865e+00
1.2028563734e+00
1.2031402844e+00
1.2033654599e+00
1.2035405270e+00
1.2036740637e+00
1.2037740005e+00
1.2038474618e+00
1.2039005207e+00
1.2039382572e+00
1.2039647382e+00
1.2039831819e+00
1.2039960372e+00
1.2040051629e+00
1.2040119217e+00
1.2040173260e+00
1.2040221087e+00
1.2040268214e+00
1.2040318759e+00
1.2040376004e+00
1.2040442594e+00
1.2040520813e+00
1.2040612706e+00
1.2040720234e+00
1.2040845492e+00
1.2040990945e+00
1.2041159927e+00
1.2041357104e+00
1.2041589260e+00
1.2041865819e+00
1.2042199440e+00
1.2042605826e+00
1.2043103035e+00
1.2043709467e+00
1.2044440916e+00
1.2045306482e+00
1.2046304032e+00
1.2047416065e+00
1.2048606785e+00
1.2049821885e+00
1.2050991244e+00
1.2052035278e+00
1.2052874117e+00
1.2053437991e+00
1.2053678082e+00
1.2053573430e+00
1.2053135951e+00
1.2052407302e+00
1.2051454814e+00
1.2050359314e+00
1.2049206490e+00
1.2048073615e+00
1.2047024097e+00
1.2046100512e+00
1.2045325983e+00
1.2044704580e+00
1.2044227089e+00
1.2043874825e+00
1.2043625267e+00
1.2043455210e+00
1.2043343771e+00
1.2043273463e+00
1.2043230774e+00
1.2043205811e+00
1.2043191760e+00
1.2043184142e+00
1.2043180167e+00
1.2043178170e+00
1.2043177205e+00
1.2043176756e+00
1.2043176555e+00
1.2043176468e+00
1.2043176433e+00
1.2043176418e+00
1.2043176413e+00
1.2043176411e+00
1.2043176410e+00
1.2043176410e+00
1.2043176410e+00
1.2043176410e+00
1.2043176410e+00
1.2043176410e+00
1.2043176410e+00
1.2043176410e+00
1.2043176410e+00
1.1941525281e+00
1.1944367760e+00
1.1947499556e+00
1.1951979812e+00
1.1957604606e+00
1.1964129199e+00
1.1971280050e+00
1.1978780213e+00
1.1986360207e+00
1.1993780285e+00
1.2000835227e+00
1.2007368169e+00
1.2013267509e+00
1.2018471247e+00
1.2022957678e+00
1.2026742843e+00
1.2029868743e+00
1.2032397991e+00
1.2034403207e+00
1.2035962289e+00
1.2037151082e+00
1.2038040910e+00
1.2038694805e+00
1.2039167294e+00
1.2039503289e+00
1.2039739287e+00
1.2039903692e+00
1.2040018491e+00
1.2040100036e+00
1.2040160576e+00
1.2040208960e+00
1.2040251765e+00
1.2040293743e+00
1.2040338526e+00
1.2040388840e+00
1.2040446881e+00
1.2040514410e+00
1.2040592954e+00
1.2040683929e+00
1.2040788877e+00
1.2040909832e+00
1.2041049802e+00
1.2041213526e+00
1.2041408224e+00
1.2041644512e+00
1.2041936890e+00
1.2042303855e+00
1.2042766929e+00
1.2043348593e+00
1.2044068836e+00
1.2044940491e+00
1.2045964190e+00
1.2047123319e+00
1.2048381026e+00
1.2049679330e+00
1.2050942505e+00
1.2052083641e+00
1.2053014821e+00
1.2053658971e+00
1.2053960751e+00
1.2053896085e+00
1.2053474918e+00
1.2052741597e+00
1.2051765922e+00
1.2050635200e+00
1.2049439247e+00
1.2048261874e+00
1.2047169355e+00
1.2046208254e+00
1.2045402222e+00
1.2044756480e+00
1.2044260729e+00
1.2043895783e+00
1.2043637644e+00
1.2043462210e+00
1.2043347492e+00
1.2043275339e+00
1.2043231646e+00
1.2043206185e+00
1.2043191898e+00
1.2043184182e+00
1.2043180171e+00
1.2043178164e+00
1.2043177198e+00
1.2043176751e+00
1.2043176552e+00
1.2043176467e+00
1.2043176432e+00
1.2043176418e+00
1.2043176413e+00
1.2043176411e+00
1.2043176410e+00
1.2043176410e+00
1.2043176410e+00
1.2043176410e+00
1.2043176410e+00
1.2043176410e+00
1.2043176410e+00
1.2043176410e+00
1.2043176410e+00
1.1953446988e+00
1.1956103914e+00
1.1958864674e+00
1.1962807430e+00
1.1967755057e+00
1.1973489479e+00
1.1979773348e+00
1.1986360207e+00
1.1993016748e+00
1.1999529491e+00
1.2005721534e+00
1.2011452710e+00
1.2016627921e+00
1.2021190856e+00
1.2025124753e+00
1.2028442295e+00
1.2031182019e+00
1.2033397852e+00
1.2035154656e+00
1.2036520027e+00
1.2037561243e+00
1.2038340308e+00
1.2038912976e+00
1.2039326642e+00
1.2039620993e+00
1.2039827709e+00
1.2039971894e+00
1.2040072583e+00
1.2040144247e+00
1.2040197436e+00
1.2040239990e+00
1.2040277507e+00
1.2040314164e+00
1.2040352956e+00
1.2040396175e+00
1.2040445491e+00
1.2040502209e+00
1.2040567324e+00
1.2040641750e+00
1.2040726551e+00
1.2040823375e+00
1.2040935089e+00
1.2041066590e+00
1.2041225827e+00
1.2041424728e+00
1.2041679933e+00
1.2042012802e+00
1.2042448401e+00
1.2043013144e+00
1.2043730789e+00
1.2044617435e+00
1.2045675441e+00
1.2046888416e+00
1.2048217133e+00
1.2049599471e+00
1.2050953272e+00
1.2052184366e+00
1.2053197285e+00
1.2053908094e+00
1.2054257037e+00
1.2054217004e+00
1.2053799185e+00
1.2053049478e+00
1.2052043523e+00
1.2050872512e+00
1.2049633145e+00
1.2048412351e+00
1.2047281187e+00
1.2046287004e+00
1.2045455253e+00
1.2044790069e+00
1.2044280937e+00
1.2043907011e+00
1.2043643438e+00
1.2043464815e+00
1.2043348460e+00
1.2043275518e+00
1.2043231532e+00
1.2043205997e+00
1.2043191733e+00
1.2043184063e+00
1.2043180095e+00
1.2043178120e+00
1.2043177174e+00
1.2043176739e+00
1.2043176546e+00
1.2043176464e+00
1.2043176431e+00
1.2043176418e+00
1.2043176413e+00
1.2043176411e+00
1.2043176410e+00
1.2043176410e+00
1.2043176410e+00
1.2043176410e+00
1.2043176410e+00
1.2043176410e+00
1.2043176410e+00
1.2043176410e+00
1.2043176410e+00
1.1965133266e+00
1.1967606060e+00
1.1970000577e+00
1.1973416009e+00
1.1977696729e+00
1.1982656701e+00
1.1988087860e+00
1.1993780285e+00
1.1999529491e+00
1.2005154241e+00
1.2010499178e+00
1.2015446178e+00
1.2019911066e+00
1.2023847665e+00
1.2027239951e+00
1.2030100744e+00
1.2032462169e+00
1.2034372101e+00
1.2035885683e+00
1.2037062133e+00
1.2037958882e+00
1.2038629995e+00
1.2039123100e+00
1.2039479447e+00
1.2039732907e+00
1.2039911045e+00
1.2040035237e+00
1.2040122065e+00
1.2040183797e+00
1.2040229641e+00
1.2040266178e+00
1.2040298285e+00
1.2040329375e+00
1.2040361985e+00
1.2040397843e+00
1.2040438205e+00
1.2040483850e+00
1.2040535323e+00
1.2040593039e+00
1.2040657662e+00
1.2040730564e+00
1.2040814590e+00
1.2040915028e+00
1.2041040738e+00
1.2041205258e+00
1.2041427568e+00
1.2041732060e+00
1.2042147403e+00
1.2042703676e+00
1.2043428158e+00
1.2044339261e+00
1.2045440530e+00
1.2046714285e+00
1.2048118419e+00
1.2049585254e+00
1.2051026172e+00
1.2052339375e+00
1.2053422387e+00
1.2054185745e+00
1.2054565810e+00
1.2054535323e+00
1.2054106260e+00
1.2053329645e+00
1.2052284867e+00
1.2051070287e+00
1.2049786070e+00
1.2048524735e+00
1.2047358428e+00
1.2046336974e+00
1.2045484685e+00
1.2044805760e+00
1.2044287724e+00
1.2043908883e+00
1.2043642780e+00
1.2043463266e+00
1.2043346787e+00
1.2043274123e+00
1.2043230495e+00
1.2043205299e+00
1.2043191293e+00
1.2043183803e+00
1.2043179950e+00
1.2043178042e+00
1.2043177135e+00
1.2043176720e+00
1.2043176537e+00
1.2043176460e+00
1.2043176429e+00
1.2043176417e+00
1.2043176412e+00
1.2043176411e+00
1.2043176410e+00
1.2043176410e+00
1.2043176410e+00
1.2043176410e+00
1.2043176410e+00
1.2043176410e+00
1.2043176410e+00
1.2043176410e+00
1.2043176410e+00
1.1976261113e+00
1.1978555500e+00
1.1980600964e+00
1.1983511705e+00
1.1987157318e+00
1.1991377110e+00
1.1995996792e+00
1.2000835227e+00
1.2005721534e+00
1.2010499178e+00
1.2015039002e+00
1.2019238523e+00
1.2023028735e+00
1.2026368747e+00
1.2029246949e+00
1.2031672981e+00
1.2033675595e+00
1.2035294519e+00
1.2036577584e+00
1.2037574373e+00
1.2038334302e+00
1.2038902734e+00
1.2039320520e+00
1.2039622262e+00
1.2039836981e+00
1.2039987757e+00
1.2040092919e+00
1.2040166294e+00
1.2040218426e+00
1.2040256926e+00
1.2040287455e+00
1.2040313955e+00
1.2040339313e+00
1.2040365439e+00
1.2040393660e+00
1.2040424697e+00
1.2040458924e+00
1.2040496376e+00
1.2040537077e+00
1.2040581327e+00
1.2040630366e+00
1.2040687180e+00
1.2040757669e+00
1.2040851874e+00
1.2040985228e+00
1.2041179277e+00
1.2041461670e+00
1.2041864567e+00
1.2042421678e+00
1.2043163015e+00
1.2044108928e+00
1.2045262612e+00
1.2046604604e+00
1.2048088100e+00
1.2049639729e+00
1.2051163268e+00
1.2052549821e+00
1.2053690351e+00
1.2054490720e+00
1.2054885705e+00
1.2054848101e+00
1.2054394184e+00
1.2053578698e+00
1.2052488454e+00
1.2051225833e+00
1.2049897495e+00
1.2048597544e+00
1.2047401390e+00
1.2046357715e+00
1.2045491200e+00
1.2044803669e+00
1.2044281746e+00
1.2043901668e+00
1.2043636113e+00
1.2043457781e+00
1.2043342710e+00
1.2043271276e+00
1.2043228638e+00
1.2043204145e+00
1.2043190614e+00
1.2043183422e+00
1.2043179745e+00
1.2043177938e+00
1.2043177083e+00
1.2043176696e+00
1.2043176526e+00
1.2043176456e+00
1.2043176427e+00
1.2043176416e+00
1.2043176412e+00
1.2043176411e+00
1.2043176410e+00
1.2043176410e+00
1.2043176410e+00
1.2043176410e+00
1.2043176410e+00
1.2043176410e+00
1.2043176410e+00
1.2043176410e+00
1.2043176410e+00
1.1986577742e+00
1.1988705074e+00
1.1990424977e+00
1.1992867630e+00
1.1995921988e+00
1.1999455736e+00
1.2003320772e+00
1.2007368169e+00
1.2011452710e+00
1.2015446178e+00
1.2019238523e+00
1.2022746535e+00
1.2025910834e+00
1.2028699298e+00
1.2031100906e+00
1.2033125285e+00
1.2034795461e+00
1.2036145742e+00
1.2037215331e+00
1.2038046393e+00
1.2038679622e+00
1.2039153390e+00
1.2039501361e+00
1.2039752745e+00
1.2039931425e+00
1.2040056885e+00
1.2040144155e+00
1.2040204931e+00
1.2040247791e+00
1.2040279186e+00
1.2040303634e+00
1.2040324446e+00
1.2040343788e+00
1.2040363154e+00
1.2040383315e+00
1.2040404612e+00
1.2040426902e+00
1.2040449848e+00
1.2040473054e+00
1.2040496619e+00
1.2040521740e+00
1.2040551791e+00
1.2040593499e+00
1.2040658427e+00
1.2040764151e+00
1.2040935134e+00
1.2041202296e+00
1.2041601453e+00
1.2042169352e+00
1.2042938556e+00
1.2043929914e+00
1.2045145846e+00
1.2046563076e+00
1.2048129871e+00
1.2049765398e+00
1.2051366259e+00
1.2052816017e+00
1.2054000110e+00
1.2054821239e+00
1.2055213384e+00
1.2055152583e+00
1.2054658786e+00
1.2053794320e+00
1.2052650790e+00
1.2051338121e+00
1.2049965400e+00
1.2048631015e+00
1.2047409444e+00
1.2046350151e+00
1.2045474993e+00
1.2044784789e+00
1.2044263444e+00