# vtk DataFile Version 2.0
Blank
ASCII
DATASET STRUCTURED_GRID
DIMENSIONS 101 101 2
POINTS 20402 float
0.0000000000e+00 0.0000000000e+00 0.0000000000e+00
1.0000000000e-02 0.0000000000e+00 0.0000000000e+00
2.0000000000e-02 0.0000000000e+00 0.0000000000e+00
3.0000000000e-02 0.0000000000e+00 0.0000000000e+00
4.0000000000e-02 0.0000000000e+00 0.0000000000e+00
5.0000000000e-02 0.0000000000e+00 0.0000000000e+00
6.0000000000e-02 0.0000000000e+00 0.0000000000e+00
7.0000000000e-02 0.0000000000e+00 0.0000000000e+00
8.0000000000e-02 0.0000000000e+00 0.0000000000e+00
9.0000000000e-02 0.0000000000e+00 0.0000000000e+00
1.0000000000e-01 0.0000000000e+00 0.0000000000e+00
1.1000000000e-01 0.0000000000e+00 0.0000000000e+00
1.2000000000e-01 0.0000000000e+00 0.0000000000e+00
1.3000000000e-01 0.0000000000e+00 0.0000000000e+00
1.4000000000e-01 0.0000000000e+00 0.0000000000e+00
1.5000000000e-01 0.0000000000e+00 0.0000000000e+00
1.6000000000e-01 0.0000000000e+00 0.0000000000e+00
1.7000000000e-01 0.0000000000e+00 0.0000000000e+00
1.8000000000e-01 0.0000000000e+00 0.0000000000e+00
1.9000000000e-01 0.0000000000e+00 0.0000000000e+00
2.0000000000e-01 0.0000000000e+00 0.0000000000e+00
2.1000000000e-01 0.0000000000e+00 0.0000000000e+00
2.2000000000e-01 0.0000000000e+00 0.0000000000e+00
2.3000000000e-01 0.0000000000e+00 0.0000000000e+00
2.4000000000e-01 0.0000000000e+00 0.0000000000e+00
2.5000000000e-01 0.0000000000e+00 0.0000000000e+00
2.6000000000e-01 0.0000000000e+00 0.0000000000e+00
2.7000000000e-01 0.0000000000e+00 0.0000000000e+00
2.8000000000e-01 0.0000000000e+00 0.0000000000e+00
2.9000000000e-01 0.0000000000e+00 0.0000000000e+00
3.0000000000e-01 0.0000000000e+00 0.0000000000e+00
3.1000000000e-01 0.0000000000e+00 0.0000000000e+00
3.2000000000e-01 0.0000000000e+00 0.0000000000e+00
3.3000000000e-01 0.0000000000e+00 0.0000000000e+00
3.4000000000e-01 0.0000000000e+00 0.0000000000e+00
3.5000000000e-01 0.0000000000e+00 0.0000000000e+00
3.6000000000e-01 0.0000000000e+00 0.0000000000e+00
3.7000000000e-01 0.0000000000e+00 0.0000000000e+00
3.8000000000e-01 0.0000000000e+00 0.0000000000e+00
3.9000000000e-01 0.0000000000e+00 0.0000000000e+00
4.0000000000e-01 0.0000000000e+00 0.0000000000e+00
4.1000000000e-01 0.0000000000e+00 0.0000000000e+00
4.2000000000e-01 0.0000000000e+00 0.0000000000e+00
4.3000000000e-01 0.0000000000e+00 0.0000000000e+00
4.4000000000e-01 0.0000000000e+00 0.0000000000e+00
4.5000000000e-01 0.0000000000e+00 0.0000000000e+00
4.6000000000e-01 0.0000000000e+00 0.0000000000e+00
4.7000000000e-01 0.0000000000e+00 0.0000000000e+00
4.8000000000e-01 0.0000000000e+00 0.0000000000e+00
4.9000000000e-01 0.0000000000e+00 0.0000000000e+00
5.0000000000e-01 0.0000000000e+00 0.0000000000e+00
5.1000000000e-01 0.0000000000e+00 0.0000000000e+00
5.2000000000e-01 0.0000000000e+00 0.0000000000e+00
5.3000000000e-01 0.0000000000e+00 0.0000000000e+00
5.4000000000e-01 0.0000000000e+00 0.0000000000e+00
5.5000000000e-01 0.0000000000e+00 0.0000000000e+00
5.6000000000e-01 0.0000000000e+00 0.0000000000e+00
5.7000000000e-01 0.0000000000e+00 0.0000000000e+00
5.8000000000e-01 0.0000000000e+00 0.0000000000e+00
5.9000000000e-01 0.0000000000e+00 0.0000000000e+00
6.0000000000e-01 0.0000000000e+00 0.0000000000e+00
6.1000000000e-01 0.0000000000e+00 0.0000000000e+00
6.2000000000e-01 0.0000000000e+00 0.0000000000e+00
6.3000000000e-01 0.0000000000e+00 0.0000000000e+00
6.4000000000e-01 0.0000000000e+00 0.0000000000e+00
6.5000000000e-01 0.0000000000e+00 0.0000000000e+00
6.6000000000e-01 0.0000000000e+00 0.0000000000e+00
6.7000000000e-01 0.0000000000e+00 0.0000000000e+00
6.8000000000e-01 0.0000000000e+00 0.0000000000e+00
6.9000000000e-01 0.0000000000e+00 0.0000000000e+00
7.0000000000e-01 0.0000000000e+00 0.0000000000e+00
7.1000000000e-01 0.0000000000e+00 0.0000000000e+00
7.2000000000e-01 0.0000000000e+00 0.0000000000e+00
7.3000000000e-01 0.0000000000e+00 0.0000000000e+00
7.4000000000e-01 0.0000000000e+00 0.0000000000e+00
7.5000000000e-01 0.0000000000e+00 0.0000000000e+00
7.6000000000e-01 0.0000000000e+00 0.0000000000e+00
7.7000000000e-01 0.0000000000e+00 0.0000000000e+00
7.8000000000e-01 0.0000000000e+00 0.0000000000e+00
7.9000000000e-01 0.0000000000e+00 0.0000000000e+00
8.0000000000e-01 0.0000000000e+00 0.0000000000e+00
8.1000000000e-01 0.0000000000e+00 0.0000000000e+00
8.2000000000e-01 0.0000000000e+00 0.0000000000e+00
8.3000000000e-01 0.0000000000e+00 0.0000000000e+00
8.4000000000e-01 0.0000000000e+00 0.0000000000e+00
8.5000000000e-01 0.0000000000e+00 0.0000000000e+00
8.6000000000e-01 0.0000000000e+00 0.0000000000e+00
8.7000000000e-01 0.0000000000e+00 0.0000000000e+00
8.8000000000e-01 0.0000000000e+00 0.0000000000e+00
8.9000000000e-01 0.0000000000e+00 0.0000000000e+00
9.0000000000e-01 0.0000000000e+00 0.0000000000e+00
9.1000000000e-01 0.0000000000e+00 0.0000000000e+00
9.2000000000e-01 0.0000000000e+00 0.0000000000e+00
9.3000000000e-01 0.0000000000e+00 0.0000000000e+00
9.4000000000e-01 0.0000000000e+00 0.0000000000e+00
9.5000000000e-01 0.0000000000e+00 0.0000000000e+00
9.6000000000e-01 0.0000000000e+00 0.0000000000e+00
9.7000000000e-01 0.0000000000e+00 0.0000000000e+00
9.8000000000e-01 0.0000000000e+00 0.0000000000e+00
9.9000000000e-01 0.0000000000e+00 0.0000000000e+00
1.0000000000e+00 0.0000000000e+00 0.0000000000e+00
0.0000000000e+00 1.0000000000e-02 0.0000000000e+00
1.0000000000e-02 1.0000000000e-02 0.0000000000e+00
2.0000000000e-02 1.0000000000e-02 0.0000000000e+00
3.0000000000e-02 1.0000000000e-02 0.0000000000e+00
4.0000000000e-02 1.0000000000e-02 0.0000000000e+00
5.0000000000e-02 1.0000000000e-02 0.0000000000e+00
6.0000000000e-02 1.0000000000e-02 0.0000000000e+00
7.0000000000e-02 1.0000000000e-02 0.0000000000e+00
8.0000000000e-02 1.0000000000e-02 0.0000000000e+00
9.0000000000e-02 1.0000000000e-02 0.0000000000e+00
1.0000000000e-01 1.0000000000e-02 0.0000000000e+00
1.1000000000e-01 1.0000000000e-02 0.0000000000e+00
1.2000000000e-01 1.0000000000e-02 0.0000000000e+00
1.3000000000e-01 1.0000000000e-02 0.0000000000e+00
1.4000000000e-01 1.0000000000e-02 0.0000000000e+00
1.5000000000e-01 1.0000000000e-02 0.0000000000e+00
1.6000000000e-01 1.0000000000e-02 0.0000000000e+00
1.7000000000e-01 1.0000000000e-02 0.0000000000e+00
1.8000000000e-01 1.0000000000e-02 0.0000000000e+00
1.9000000000e-01 1.0000000000e-02 0.0000000000e+00
2.0000000000e-01 1.0000000000e-02 0.0000000000e+00
2.1000000000e-01 1.0000000000e-02 0.0000000000e+00
2.2000000000e-01 1.0000000000e-02 0.0000000000e+00
2.3000000000e-01 1.0000000000e-02 0.0000000000e+00
2.4000000000e-01 1.0000000000e-02 0.0000000000e+00
2.5000000000e-01 1.0000000000e-02 0.0000000000e+00
2.6000000000e-01 1.0000000000e-02 0.0000000000e+00
2.7000000000e-01 1.0000000000e-02 0.0000000000e+00
2.8000000000e-01 1.0000000000e-02 0.0000000000e+00
2.9000000000e-01 1.0000000000e-02 0.0000000000e+00
3.0000000000e-01 1.0000000000e-02 0.0000000000e+00
3.1000000000e-01 1.0000000000e-02 0.0000000000e+00
3.2000000000e-01 1.0000000000e-02 0.0000000000e+00
3.3000000000e-01 1.0000000000e-02 0.0000000000e+00
3.4000000000e-01 1.0000000000e-02 0.0000000000e+00
3.5000000000e-01 1.0000000000e-02 0.0000000000e+00
3.6000000000e-01 1.0000000000e-02 0.0000000000e+00
3.7000000000e-01 1.0000000000e-02 0.0000000000e+00
3.8000000000e-01 1.0000000000e-02 0.0000000000e+00
3.9000000000e-01 1.0000000000e-02 0.0000000000e+00
4.0000000000e-01 1.0000000000e-02 0.0000000000e+00
4.1000000000e-01 1.0000000000e-02 0.0000000000e+00
4.2000000000e-01 1.0000000000e-02 0.0000000000e+00
4.3000000000e-01 1.0000000000e-02 0.0000000000e+00
4.4000000000e-01 1.0000000000e-02 0.0000000000e+00
4.5000000000e-01 1.0000000000e-02 0.0000000000e+00
4.6000000000e-01 1.0000000000e-02 0.0000000000e+00
4.7000000000e-01 1.0000000000e-02 0.0000000000e+00
4.8000000000e-01 1.0000000000e-02 0.0000000000e+00
4.9000000000e-01 1.0000000000e-02 0.0000000000e+00
5.0000000000e-01 1.0000000000e-02 0.0000000000e+00
5.1000000000e-01 1.0000000000e-02 0.0000000000e+00
5.2000000000e-01 1.0000000000e-02 0.0000000000e+00
5.3000000000e-01 1.0000000000e-02 0.0000000000e+00
5.4000000000e-01 1.0000000000e-02 0.0000000000e+00
5.5000000000e-01 1.0000000000e-02 0.0000000000e+00
5.6000000000e-01 1.0000000000e-02 0.0000000000e+00
5.7000000000e-01 1.0000000000e-02 0.0000000000e+00
5.8000000000e-01 1.0000000000e-02 0.0000000000e+00
5.9000000000e-01 1.0000000000e-02 0.0000000000e+00
6.0000000000e-01 1.0000000000e-02 0.0000000000e+00
6.1000000000e-01 1.0000000000e-02 0.0000000000e+00
6.2000000000e-01 1.0000000000e-02 0.0000000000e+00
6.3000000000e-01 1.0000000000e-02 0.0000000000e+00
6.4000000000e-01 1.0000000000e-02 0.0000000000e+00
6.5000000000e-01 1.0000000000e-02 0.0000000000e+00
6.6000000000e-01 1.0000000000e-02 0.0000000000e+00
6.7000000000e-01 1.0000000000e-02 0.0000000000e+00
6.8000000000e-01 1.0000000000e-02 0.0000000000e+00
6.9000000000e-01 1.0000000000e-02 0.0000000000e+00
7.0000000000e-01 1.0000000000e-02 0.0000000000e+00
7.1000000000e-01 1.0000000000e-02 0.0000000000e+00
7.2000000000e-01 1.0000000000e-02 0.0000000000e+00
7.3000000000e-01 1.0000000000e-02 0.0000000000e+00
7.4000000000e-01 1.0000000000e-02 0.0000000000e+00
7.5000000000e-01 1.0000000000e-02 0.0000000000e+00
7.6000000000e-01 1.0000000000e-02 0.0000000000e+00
7.7000000000e-01 1.0000000000e-02 0.0000000000e+00
7.8000000000e-01 1.0000000000e-02 0.0000000000e+00
7.9000000000e-01 1.0000000000e-02 0.0000000000e+00
8.0000000000e-01 1.0000000000e-02 0.0000000000e+00
8.1000000000e-01 1.0000000000e-02 0.0000000000e+00
8.2000000000e-01 1.0000000000e-02 0.0000000000e+00
8.3000000000e-01 1.0000000000e-02 0.0000000000e+00
8.4000000000e-01 1.0000000000e-02 0.0000000000e+00
8.5000000000e-01 1.0000000000e-02 0.0000000000e+00
8.6000000000e-01 1.0000000000e-02 0.0000000000e+00
8.7000000000e-01 1.0000000000e-02 0.0000000000e+00
8.8000000000e-01 1.0000000000e-02 0.0000000000e+00
8.9000000000e-01 1.0000000000e-02 0.0000000000e+00
9.0000000000e-01 1.0000000000e-02 0.0000000000e+00
9.1000000000e-01 1.0000000000e-02 0.0000000000e+00
9.2000000000e-01 1.0000000000e-02 0.0000000000e+00
[...]
CELL_DATA 10000

SCALARS massDensity float
LOOKUP_TABLE default
1.2007889073e+00
1.2008062744e+00
1.2008318836e+00
1.2008704957e+00
1.2009216204e+00
1.2009846471e+00
1.2010588567e+00
1.2011434325e+00
1.2012374708e+00
1.2013399945e+00
1.2014499674e+00
1.2015663104e+00
1.2016879178e+00
1.2018136744e+00
1.2019424710e+00
1.2020732210e+00
1.2022048737e+00
1.2023364286e+00
1.2024669457e+00
1.2025955563e+00
1.2027214700e+00
1.2028439814e+00
1.2029624734e+00
1.2030764202e+00
1.2031853867e+00
1.2032890282e+00
1.2033870867e+00
1.2034793877e+00
1.2035658340e+00
1.2036464008e+00
1.2037211274e+00
1.2037901112e+00
1.2038534993e+00
1.2039114811e+00
1.2039642805e+00
1.2040121489e+00
1.2040553576e+00
1.2040941919e+00
1.2041289442e+00
1.2041599098e+00
1.2041873812e+00
1.2042116444e+00
1.2042329757e+00
1.2042516390e+00
1.2042678834e+00
1.2042819422e+00
1.2042940319e+00
1.2043043519e+00
1.2043130844e+00
1.2043203950e+00
1.2043264335e+00
1.2043313349e+00
1.2043352202e+00
1.2043381985e+00
1.2043403677e+00
1.2043418159e+00
1.2043426231e+00
1.2043428621e+00
1.2043425997e+00
1.2043418977e+00
1.2043408137e+00
1.2043394018e+00
1.2043377128e+00
1.2043357952e+00
1.2043336944e+00
1.2043314537e+00
1.2043291136e+00
1.2043267120e+00
1.2043242839e+00
1.2043218612e+00
1.2043194724e+00
1.2043171428e+00
1.2043148938e+00
1.2043127430e+00
1.2043107046e+00
1.2043087887e+00
1.2043070022e+00
1.2043053483e+00
1.2043038273e+00
1.2043024367e+00
1.2043011718e+00
1.2043000260e+00
1.2042989913e+00
1.2042980589e+00
1.2042972199e+00
1.2042964655e+00
1.2042957876e+00
1.2042951794e+00
1.2042946351e+00
1.2042941509e+00
1.2042937248e+00
1.2042933568e+00
1.2042930503e+00
1.2042928131e+00
1.2042926606e+00
1.2042926195e+00
1.2042927340e+00
1.2042930709e+00
1.2042937199e+00
1.2042886469e+00
1.2008062744e+00
1.2008244839e+00
1.2008504424e+00
1.2008891408e+00
1.2009401562e+00
1.2010029227e+00
1.2010767518e+00
1.2011608472e+00
1.2012543208e+00
1.2013562068e+00
1.2014654790e+00
1.2015810664e+00
1.2017018713e+00
1.2018267853e+00
1.2019547063e+00
1.2020845533e+00
1.2022152822e+00
1.2023458974e+00
1.2024754646e+00
1.2026031195e+00
1.2027280766e+00
1.2028496340e+00
1.2029671791e+00
1.2030801886e+00
1.2031882312e+00
1.2032909642e+00
1.2033881326e+00
1.2034795633e+00
1.2035651614e+00
1.2036449030e+00
1.2037188292e+00
1.2037870379e+00
1.2038496777e+00
1.2039069385e+00
1.2039590456e+00
1.2040062509e+00
1.2040488271e+00
1.2040870605e+00
1.2041212456e+00
1.2041516789e+00
1.2041786553e+00
1.2042024630e+00
1.2042233811e+00
1.2042416762e+00
1.2042576008e+00
1.2042713912e+00
1.2042832674e+00
1.2042934318e+00
1.2043020699e+00
1.2043093500e+00
1.2043154242e+00
1.2043204292e+00
1.2043244875e+00
1.2043277080e+00
1.2043301883e+00
1.2043320149e+00
1.2043332653e+00
1.2043340087e+00
1.2043343075e+00
1.2043342178e+00
1.2043337911e+00
1.2043330744e+00
1.2043321111e+00
1.2043309414e+00
1.2043296029e+00
1.2043281305e+00
1.2043265566e+00
1.2043249116e+00
1.2043232232e+00
1.2043215169e+00
1.2043198155e+00
1.2043181396e+00
1.2043165066e+00
1.2043149316e+00
1.2043134267e+00
1.2043120014e+00
1.2043106626e+00
1.2043094145e+00
1.2043082591e+00
1.2043071963e+00
1.2043062243e+00
1.2043053394e+00
1.2043045372e+00
1.2043038122e+00
1.2043031586e+00
1.2043025705e+00
1.2043020420e+00
1.2043015681e+00
1.2043011440e+00
1.2043007663e+00
1.2043004321e+00
1.2043001403e+00
1.2042998912e+00
1.2042996872e+00
1.2042995336e+00
1.2042994396e+00
1.2042994173e+00
1.2042994798e+00
1.2042996301e+00
1.2042934923e+00
1.2008318836e+00
1.2008504424e+00
1.2008764526e+00
1.2009150344e+00
1.2009657886e+00
1.2010281706e+00
1.2011015078e+00
1.2011850180e+00
1.2012778235e+00
1.2013789696e+00
1.2014874387e+00
1.2016021698e+00
1.2017220734e+00
1.2018460502e+00
1.2019730059e+00
1.2021018686e+00
1.2022316011e+00
1.2023612161e+00
1.2024897855e+00
1.2026164523e+00
1.2027404361e+00
1.2028610413e+00
1.2029776590e+00
1.2030897712e+00
1.2031969491e+00
1.2032988537e+00
1.2033952315e+00
1.2034859119e+00
1.2035708005e+00
1.2036498748e+00
1.2037231753e+00
1.2037908007e+00
1.2038528982e+00
1.2039096576e+00
1.2039613024e+00
1.2040080841e+00
1.2040502734e+00
1.2040881556e+00
1.2041220233e+00
1.2041521720e+00
1.2041788946e+00
1.2042024785e+00
1.2042232010e+00
1.2042413277e+00
1.2042571096e+00
1.2042707822e+00
1.2042825641e+00
1.2042926569e+00
1.2043012447e+00
1.2043084950e+00
1.2043145586e+00
1.2043195712e+00
1.2043236535e+00
1.2043269137e+00
1.2043294473e+00
1.2043313395e+00
1.2043326659e+00
1.2043334939e+00
1.2043338839e+00
1.2043338904e+00
1.2043335625e+00
1.2043329454e+00
1.2043320807e+00
1.2043310068e+00
1.2043297595e+00
1.2043283725e+00
1.2043268769e+00
1.2043253021e+00
1.2043236750e+00
1.2043220208e+00
1.2043203620e+00
1.2043187190e+00
1.2043171099e+00
1.2043155500e+00
1.2043140521e+00
1.2043126265e+00
1.2043112810e+00
1.2043100209e+00
1.2043088492e+00
1.2043077669e+00
1.2043067730e+00
1.2043058652e+00
1.2043050395e+00
1.2043042915e+00
1.2043036157e+00
1.2043030067e+00
1.2043024587e+00
1.2043019664e+00
1.2043015249e+00
1.2043011298e+00
1.2043007775e+00
1.2043004652e+00
1.2043001913e+00
1.2042999549e+00
1.2042997561e+00
1.2042995953e+00
1.2042994708e+00
1.2042993745e+00
1.2042992806e+00
1.2042925679e+00
1.2008704957e+00
1.2008891408e+00
1.2009150344e+00
1.2009533245e+00
1.2010036197e+00
1.2010653868e+00
1.2011379669e+00
1.2012205903e+00
1.2013123935e+00
1.2014124335e+00
1.2015197069e+00
1.2016331644e+00
1.2017517305e+00
1.2018743174e+00
1.2019998446e+00
1.2021272512e+00
1.2022555127e+00
1.2023836520e+00
1.2025107526e+00
1.2026359660e+00
1.2027585219e+00
1.2028777317e+00
1.2029929945e+00
1.2031037974e+00
1.2032097179e+00
1.2033104201e+00
1.2034056548e+00
1.2034952530e+00
1.2035791226e+00
1.2036572411e+00
1.2037296500e+00
1.2037964466e+00
1.2038577778e+00
1.2039138313e+00
1.2039648294e+00
1.2040110206e+00
1.2040526741e+00
1.2040900719e+00
1.2041235046e+00
1.2041532647e+00
1.2041796428e+00
1.2042029234e+00
1.2042233818e+00
1.2042412808e+00
1.2042568696e+00
1.2042703813e+00
1.2042820327e+00
1.2042920232e+00
1.2043005355e+00
1.2043077348e+00
1.2043137704e+00
1.2043187760e+00
1.2043228710e+00
1.2043261610e+00
1.2043287402e+00
1.2043306914e+00
1.2043320884e+00
1.2043329964e+00
1.2043334738e+00
1.2043335727e+00
1.2043333404e+00
1.2043328200e+00
1.2043320510e+00
1.2043310701e+00
1.2043299116e+00
1.2043286073e+00
1.2043271875e+00
1.2043256804e+00
1.2043241123e+00
1.2043225079e+00
1.2043208894e+00
1.2043192775e+00
1.2043176903e+00
1.2043161437e+00
1.2043146512e+00
1.2043132239e+00
1.2043118705e+00
1.2043105972e+00
1.2043094082e+00
1.2043083053e+00
1.2043072886e+00
1.2043063565e+00
1.2043055062e+00
1.2043047335e+00
1.2043040338e+00
1.2043034017e+00
1.2043028316e+00
1.2043023181e+00
1.2043018559e+00
1.2043014399e+00
1.2043010656e+00
1.2043007288e+00
1.2043004258e+00
1.2043001530e+00
1.2042999064e+00
1.2042996808e+00
1.2042994669e+00
1.2042992482e+00
1.2042989928e+00
1.2042919224e+00
1.2009216204e+00
1.2009401562e+00
1.2009657886e+00
1.2010036197e+00
1.2010532596e+00
1.2011141837e+00
1.2011857444e+00
1.2012671863e+00
1.2013576598e+00
1.2014562385e+00
1.2015619338e+00
1.2016737141e+00
1.2017905191e+00
1.2019112792e+00
1.2020349285e+00
1.2021604237e+00
1.2022867544e+00
1.2024129594e+00
1.2025381349e+00
1.2026614465e+00
1.2027821343e+00
1.2028995216e+00
1.2030130156e+00
1.2031221126e+00
1.2032263956e+00
1.2033255355e+00
1.2034192861e+00
1.2035074826e+00
1.2035900338e+00
1.2036669191e+00
1.2037381790e+00
1.2038039110e+00
1.2038642594e+00
1.2039194107e+00
1.2039695835e+00
1.2040150242e+00
1.2040559979e+00
1.2040927836e+00
1.2041256677e+00
1.2041549393e+00
1.2041808852e+00
1.2042037864e+00
1.2042239144e+00
1.2042415291e+00
1.2042568759e+00
1.2042701854e+00
1.2042816711e+00
1.2042915302e+00
1.2042999421e+00
1.2043070702e+00
1.2043130609e+00
1.2043180458e+00
1.2043221417e+00
1.2043254524e+00
1.2043280692e+00
1.2043300730e+00
1.2043315350e+00
1.2043325184e+00
1.2043330789e+00
1.2043332667e+00
1.2043331266e+00
1.2043326997e+00
1.2043320233e+00
1.2043311325e+00
1.2043300597e+00
1.2043288355e+00
1.2043274887e+00
1.2043260466e+00
1.2043245350e+00
1.2043229779e+00
1.2043213975e+00
1.2043198145e+00
1.2043182473e+00
1.2043167122e+00
1.2043152236e+00
1.2043137932e+00
1.2043124306e+00
1.2043111430e+00
1.2043099356e+00
1.2043088111e+00
1.2043077706e+00
1.2043068134e+00
1.2043059372e+00
1.2043051387e+00
1.2043044136e+00
1.2043037568e+00
1.2043031628e+00
1.2043026261e+00
1.2043021410e+00
1.2043017019e+00
1.2043013033e+00
1.2043009399e+00
1.2043006065e+00
1.2043002973e+00
1.2043000058e+00
1.2042997235e+00
1.2042994381e+00
1.2042991310e+00
1.2042987733e+00
1.2042914888e+00
1.2009846471e+00
1.2010029227e+00
1.2010281706e+00
1.2010653868e+00
1.2011141837e+00
1.2011740440e+00
1.2012443326e+00
1.2013243079e+00
1.2014131378e+00
1.2015099128e+00
1.2016136646e+00
1.2017233800e+00
1.2018380200e+00
1.2019565338e+00
1.2020778771e+00
1.2022010246e+00
1.2023249865e+00
1.2024488181e+00
1.2025716342e+00
1.2026926146e+00
1.2028110157e+00
1.2029261719e+00
1.2030375035e+00
1.2031445152e+00
1.2032467996e+00
1.2033440330e+00
1.2034359756e+00
1.2035224650e+00
1.2036034136e+00
1.2036788004e+00
1.2037486673e+00
1.2038131092e+00
1.2038722695e+00
1.2039263308e+00
1.2039755095e+00
1.2040200467e+00
1.2040602042e+00
1.2040962558e+00
1.2041284837e+00
1.2041571716e+00
1.2041826022e+00
1.2042050513e+00
1.2042247863e+00
1.2042420623e+00
1.2042571211e+00
1.2042701888e+00
1.2042814758e+00
1.2042911752e+00
1.2042994636e+00
1.2043065007e+00
1.2043124305e+00
1.2043173812e+00
1.2043214672e+00
1.2043247891e+00
1.2043274360e+00
1.2043294859e+00
1.2043310076e+00
1.2043320615e+00
1.2043327010e+00
1.2043329736e+00
1.2043329222e+00
1.2043325852e+00
1.2043319983e+00
1.2043311943e+00
1.2043302042e+00
1.2043290569e+00
1.2043277802e+00
1.2043264004e+00
1.2043249425e+00
1.2043234302e+00
1.2043218855e+00
1.2043203292e+00
1.2043187799e+00
1.2043172547e+00
1.2043157683e+00
1.2043143334e+00
1.2043129604e+00
1.2043116575e+00
1.2043104307e+00
1.2043092839e+00
1.2043082188e+00
1.2043072356e+00
1.2043063329e+00
1.2043055077e+00
1.2043047561e+00
1.2043040735e+00
1.2043034545e+00
1.2043028934e+00
1.2043023841e+00
1.2043019207e+00
1.2043014971e+00
1.2043011069e+00
1.2043007438e+00
1.2043004009e+00
1.2043000700e+00
1.2042997412e+00
1.2042994018e+00
1.2042990342e+00
1.2042986149e+00
1.2042912110e+00
1.2010588567e+00
1.2010767518e+00
1.2011015078e+00
1.2011379669e+00
1.2011857444e+00
1.2012443326e+00
1.2013131085e+00
1.2013913476e+00
1.2014782352e+00
1.2015728837e+00
1.2016743450e+00
1.2017816303e+00
1.2018937223e+00
1.2020095955e+00
1.2021282273e+00
1.2022486172e+00
1.2023697958e+00
1.2024908417e+00
1.2026108878e+00
1.2027291344e+00
1.2028448527e+00
1.2029573947e+00
1.2030661920e+00
1.2031707627e+00
1.2032707074e+00
1.2033657118e+00
1.2034555406e+00
1.2035400370e+00
1.2036191146e+00
1.2036927551e+00
1.2037609984e+00
1.2038239395e+00
1.2038817180e+00
1.2039345141e+00
1.2039825390e+00
1.2040260300e+00
1.2040652427e+00
1.2041004463e+00
1.2041319164e+00
1.2041599319e+00
1.2041847688e+00
1.2042066980e+00
1.2042259808e+00
1.2042428676e+00
1.2042575948e+00
1.2042703840e+00
1.2042814407e+00
1.2042909542e+00
1.2042990969e+00
1.2043060249e+00
1.2043118782e+00
1.2043167822e+00
1.2043208475e+00
1.2043241720e+00
1.2043268415e+00
1.2043289313e+00
1.2043305071e+00
1.2043316266e+00
1.2043323407e+00
1.2043326943e+00
1.2043327276e+00
1.2043324771e+00
1.2043319761e+00
1.2043312556e+00
1.2043303448e+00
1.2043292713e+00
1.2043280616e+00
1.2043267411e+00
1.2043253341e+00
1.2043238638e+00
1.2043223524e+00
1.2043208205e+00
1.2043192872e+00
1.2043177699e+00
1.2043162842e+00
1.2043148434e+00
1.2043134589e+00
1.2043121398e+00
1.2043108929e+00
1.2043097230e+00
1.2043086328e+00
1.2043076231e+00
1.2043066933e+00
1.2043058409e+00
1.2043050624e+00
1.2043043535e+00
1.2043037089e+00
1.2043031228e+00
1.2043025891e+00
1.2043021013e+00
1.2043016529e+00
1.2043012371e+00
1.2043008466e+00
1.2043004739e+00
1.2043001101e+00
1.2042997453e+00
1.2042993671e+00
1.2042989605e+00
1.2042985069e+00
1.2042910477e+00
1.2011434325e+00
1.2011608472e+00
1.2011850180e+00
1.2012205903e+00
1.2012671863e+00
1.2013243079e+00
1.2013913476e+00
1.2014675977e+00
1.2015522657e+00
1.2016444849e+00
1.2017433337e+00
1.2018478471e+00
1.2019570362e+00
1.2020699000e+00
1.2021854450e+00
1.2023026943e+00
1.2024207064e+00
1.2025385817e+00
1.2026554781e+00
1.2027706149e+00
1.2028832851e+00
1.2029928554e+00
1.2030987752e+00
1.2032005734e+00
1.2032978637e+00
1.2033903387e+00
1.2034777717e+00
1.2035600088e+00
1.2036369682e+00
1.2037086313e+00
1.2037750390e+00
1.2038362832e+00
1.2038925017e+00
1.2039438694e+00
1.2039905938e+00
1.2040329057e+00
1.2040710555e+00
1.2041053052e+00
1.2041359244e+00
1.2041631847e+00
1.2041873561e+00
1.2042087022e+00
1.2042274786e+00
1.2042439291e+00
1.2042582846e+00
1.2042707609e+00
1.2042815586e+00
1.2042908616e+00
1.2042988381e+00
1.2043056396e+00
1.2043114024e+00
1.2043162476e+00
1.2043202823e+00
1.2043236009e+00
1.2043262859e+00
1.2043284093e+00
1.2043300338e+00
1.2043312142e+00
1.2043319985e+00
1.2043324289e+00
1.2043325431e+00
1.2043323753e+00
1.2043319565e+00
1.2043313159e+00
1.2043304810e+00
1.2043294779e+00
1.2043283319e+00
1.2043270675e+00
1.2043257084e+00
1.2043242775e+00
1.2043227968e+00
1.2043212870e+00
1.2043197676e+00
1.2043182565e+00
1.2043167699e+00
1.2043153220e+00
1.2043139250e+00
1.2043125887e+00
1.2043113211e+00
1.2043101277e+00
1.2043090120e+00
1.2043079758e+00
1.2043070186e+00
1.2043061389e+00
1.2043053336e+00
1.2043045983e+00
1.2043039282e+00
1.2043033173e+00
1.2043027595e+00
1.2043022482e+00
1.2043017764e+00
1.2043013369e+00
1.2043009222e+00
1.2043005243e+00
1.2043001344e+00
1.2042997429e+00
1.2042993387e+00
1.2042989090e+00
1.2042984397e+00
1.2042909699e+00
1.2012374708e+00
1.2012543208e+00
1.2012778235e+00
1.2013123935e+00
1.2013576598e+00
1.2014131378e+00
1.2014782352e+00
1.2015522657e+00
1.2016344575e+00
1.2017239714e+00
1.2018199106e+00
1.2019213405e+00
1.2020272995e+00
1.2021368184e+00
1.2022489306e+00
1.2023626912e+00
1.2024771839e+00
1.2025915387e+00
1.2027049363e+00
1.2028166221e+00
1.2029259080e+00
1.2030321824e+00
1.2031349093e+00
1.2032336344e+00
1.2033279815e+00
1.2034176548e+00
1.2035024331e+00
1.2035821698e+00
1.2036567845e+00
1.2037262611e+00
1.2037906388e+00
1.2038500086e+00
1.2039045037e+00
1.2039542957e+00
1.2039995853e+00
1.2040405982e+00
1.2040775768e+00
1.2041107769e+00
1.2041404599e+00
1.2041668904e+00
1.2041903303e+00
1.2042110365e+00
1.2042292568e+00
1.2042452286e+00
1.2042591756e+00
1.2042713080e+00
1.2042818200e+00
1.2042908904e+00
1.2042986819e+00
1.2043053413e+00
1.2043110002e+00
1.2043157755e+00
1.2043197703e+00
1.2043230751e+00
1.2043257687e+00
1.2043279198e+00
1.2043295878e+00
1.2043308243e+00
1.2043316742e+00
1.2043321772e+00
1.2043323683e+00
1.2043322792e+00
1.2043319389e+00
1.2043313745e+00
1.2043306117e+00
1.2043296754e+00
1.2043285897e+00
1.2043273782e+00
1.2043260640e+00
1.2043246696e+00
1.2043232169e+00
1.2043217269e+00
1.2043202193e+00
1.2043187127e+00
1.2043172238e+00
1.2043157676e+00
1.2043143571e+00
1.2043130031e+00
1.2043117143e+00
1.2043104972e+00
1.2043093561e+00
1.2043082932e+00
1.2043073091e+00
1.2043064024e+00
1.2043055705e+00
1.2043048096e+00
1.2043041146e+00
1.2043034799e+00
1.2043028992e+00
1.2043023657e+00
1.2043018725e+00
1.2043014120e+00
1.2043009768e+00
1.2043005586e+00
1.2043001492e+00
1.2042997393e+00
1.2042993192e+00
1.2042988785e+00
1.2042984063e+00
1.2042909583e+00
1.2013399945e+00
1.2013562068e+00
1.2013789696e+00
1.2014124335e+00
1.2014562385e+00
1.2015099128e+00
1.2015728837e+00
1.2016444849e+00
1.2017239714e+00
1.2018105291e+00
1.2019032930e+00
1.2020013569e+00
1.2021037934e+00
1.2022096630e+00
1.2023180341e+00
1.2024279904e+00
1.2025386492e+00
1.2026491671e+00
1.2027587549e+00
1.2028666812e+00
1.2029722836e+00
1.2030749692e+00
1.2031742228e+00
1.2032696036e+00
1.2033607506e+00
1.2034473767e+00
1.2035292707e+00
1.2036062896e+00
1.2036783583e+00
1.2037454602e+00
1.2038076355e+00
1.2038649713e+00
1.2039175984e+00
1.2039656820e+00
1.2040094178e+00
1.2040490237e+00
1.2040847355e+00
1.2041168000e+00
1.2041454713e+00
1.2041710050e+00
1.2041936552e+00
1.2042136702e+00
1.2042312905e+00
1.2042467451e+00
1.2042602513e+00
1.2042720117e+00
1.2042822145e+00
1.2042910322e+00
1.2042986218e+00
1.2043051248e+00
1.2043106679e+00
1.2043153631e+00
1.2043193094e+00
1.2043225930e+00
1.2043252889e+00
1.2043274620e+00
1.2043291683e+00
1.2043304560e+00
1.2043313673e+00
1.2043319386e+00
1.2043322024e+00
1.2043321880e+00
1.2043319222e+00
1.2043314300e+00
1.2043307357e+00
1.2043298626e+00
1.2043288336e+00
1.2043276716e+00
1.2043263990e+00
1.2043250382e+00
1.2043236109e+00
1.2043221383e+00
1.2043206406e+00
1.2043191366e+00
1.2043176440e+00
1.2043161785e+00
1.2043147537e+00
1.2043133816e+00
1.2043120714e+00
1.2043108306e+00
1.2043096642e+00
1.2043085752e+00
1.2043075647e+00
1.2043066318e+00
1.2043057744e+00
1.2043049888e+00
1.2043042702e+00
1.2043036131e+00
1.2043030112e+00
1.2043024579e+00
1.2043019458e+00
1.2043014677e+00
1.2043010158e+00
1.2043005825e+00
1.2043001594e+00
1.2042997385e+00
1.2042993110e+00
1.2042988684e+00
1.2042984024e+00
1.2042910016e+00
1.2014499674e+00
1.2014654790e+00
1.2014874387e+00
1.2015197069e+00
1.2015619338e+00
1.2016136646e+00
1.2016743450e+00
1.2017433337e+00
1.2018199106e+00
1.2019032930e+00
1.2019926450e+00
1.2020870960e+00
1.2021857501e+00
1.2022877051e+00
1.2023920609e+00
1.2024979381e+00
1.2026044839e+00
1.2027108892e+00
1.2028163917e+00
1.2029202900e+00
1.2030219442e+00
1.2031207864e+00
1.2032163186e+00
1.2033081194e+00
1.2033958395e+00
1.2034792054e+00
1.2035580122e+00
1.2036321250e+00
1.2037014702e+00
1.2037660344e+00
1.2038258553e+00
1.2038810189e+00
1.2039316505e+00
1.2039779110e+00
1.2040199884e+00
1.2040580941e+00
1.2040924547e+00
1.2041233094e+00
1.2041509026e+00
1.2041754816e+00
1.2041972909e+00
1.2042165705e+00
1.2042335519e+00
1.2042484565e+00
1.2042614931e+00
1.2042728573e+00
1.2042827301e+00
1.2042912775e+00
1.2042986503e+00
1.2043049845e+00
1.2043104010e+00
1.2043150072e+00
1.2043188971e+00
1.2043221527e+00
1.2043248448e+00
1.2043270345e+00
1.2043287741e+00
1.2043301086e+00
1.2043310766e+00
1.2043317120e+00
1.2043320444e+00
1.2043321005e+00
1.2043319050e+00
1.2043314812e+00
1.2043308513e+00
1.2043300375e+00
1.2043290616e+00
1.2043279456e+00
1.2043267115e+00
1.2043253813e+00
1.2043239767e+00
1.2043225192e+00
1.2043210292e+00
1.2043195263e+00
1.2043180287e+00
1.2043165528e+00
1.2043151132e+00
1.2043137226e+00
1.2043123911e+00
1.2043111269e+00
1.2043099359e+00
1.2043088215e+00
1.2043077856e+00
1.2043068278e+00
1.2043059462e+00
1.2043051374e+00
1.2043043971e+00
1.2043037197e+00
1.2043030991e+00
1.2043025284e+00
1.2043020007e+00
1.2043015086e+00
1.2043010445e+00
1.2043006009e+00
1.2043001701e+00
1.2042997445e+00
1.2042993167e+00
1.2042988796e+00
1.2042984265e+00
1.2042910946e+00
1.2015663104e+00
1.2015810664e+00
1.2016021698e+00
1.2016331644e+00
1.2016737141e+00
1.2017233800e+00
1.2017816303e+00
1.2018478471e+00
1.2019213405e+00
1.2020013569e+00
1.2020870960e+00
1.2021777198e+00
1.2022723708e+00
1.2023701808e+00
1.2024702890e+00
1.2025718489e+00
1.2026740455e+00
1.2027760998e+00
1.2028772838e+00
1.2029769222e+00
1.2030744045e+00
1.2031691836e+00
1.2032607851e+00
1.2033488028e+00
1.2034329048e+00
1.2035128270e+00
1.2035883759e+00
1.2036594206e+00
1.2037258931e+00
1.2037877795e+00
1.2038451184e+00
1.2038979912e+00
1.2039465204e+00
1.2039908595e+00
1.2040311907e+00
1.2040677162e+00
1.2041006551e+00
1.2041302364e+00
1.2041566959e+00
1.2041802705e+00
1.2042011960e+00
1.2042197024e+00
1.2042360125e+00
1.2042503386e+00
1.2042628816e+00
1.2042738288e+00
1.2042833540e+00
1.2042916161e+00
1.2042987594e+00
1.2043049136e+00
1.2043101944e+00
1.2043147035e+00
1.2043185301e+00
1.2043217515e+00
1.2043244344e+00
1.2043266356e+00
1.2043284039e+00
1.2043297805e+00
1.2043308010e+00
1.2043314961e+00
1.2043318927e+00
1.2043320152e+00
1.2043318860e+00
1.2043315263e+00
1.2043309569e+00
1.2043301984e+00
1.2043292718e+00
1.2043281983e+00
1.2043269993e+00
1.2043256966e+00
1.2043243121e+00
1.2043228672e+00