# vtk DataFile Version 2.0
Blank
ASCII
DATASET STRUCTURED_GRID
DIMENSIONS 101 101 2
POINTS 20402 float
0.0000000000e+00 0.0000000000e+00 0.0000000000e+00
1.0000000000e-02 0.0000000000e+00 0.0000000000e+00
2.0000000000e-02 0.0000000000e+00 0.0000000000e+00
3.0000000000e-02 0.0000000000e+00 0.0000000000e+00
4.0000000000e-02 0.0000000000e+00 0.0000000000e+00
5.0000000000e-02 0.0000000000e+00 0.0000000000e+00
6.0000000000e-02 0.0000000000e+00 0.0000000000e+00
7.0000000000e-02 0.0000000000e+00 0.0000000000e+00
8.0000000000e-02 0.0000000000e+00 0.0000000000e+00
9.0000000000e-02 0.0000000000e+00 0.0000000000e+00
1.0000000000e-01 0.0000000000e+00 0.0000000000e+00
1.1000000000e-01 0.0000000000e+00 0.0000000000e+00
1.2000000000e-01 0.0000000000e+00 0.0000000000e+00
1.3000000000e-01 0.0000000000e+00 0.0000000000e+00
1.4000000000e-01 0.0000000000e+00 0.0000000000e+00
1.5000000000e-01 0.0000000000e+00 0.0000000000e+00
1.6000000000e-01 0.0000000000e+00 0.0000000000e+00
1.7000000000e-01 0.0000000000e+00 0.0000000000e+00
1.8000000000e-01 0.0000000000e+00 0.0000000000e+00
1.9000000000e-01 0.0000000000e+00 0.0000000000e+00
2.0000000000e-01 0.0000000000e+00 0.0000000000e+00
2.1000000000e-01 0.0000000000e+00 0.0000000000e+00
2.2000000000e-01 0.0000000000e+00 0.0000000000e+00
2.3000000000e-01 0.0000000000e+00 0.0000000000e+00
2.4000000000e-01 0.0000000000e+00 0.0000000000e+00
2.5000000000e-01 0.0000000000e+00 0.0000000000e+00
2.6000000000e-01 0.0000000000e+00 0.0000000000e+00
2.7000000000e-01 0.0000000000e+00 0.0000000000e+00
2.8000000000e-01 0.0000000000e+00 0.0000000000e+00
2.9000000000e-01 0.0000000000e+00 0.0000000000e+00
3.0000000000e-01 0.0000000000e+00 0.0000000000e+00
3.1000000000e-01 0.0000000000e+00 0.0000000000e+00
3.2000000000e-01 0.0000000000e+00 0.0000000000e+00
3.3000000000e-01 0.0000000000e+00 0.0000000000e+00
3.4000000000e-01 0.0000000000e+00 0.0000000000e+00
3.5000000000e-01 0.0000000000e+00 0.0000000000e+00
3.6000000000e-01 0.0000000000e+00 0.0000000000e+00
3.7000000000e-01 0.0000000000e+00 0.0000000000e+00
3.8000000000e-01 0.0000000000e+00 0.0000000000e+00
3.9000000000e-01 0.0000000000e+00 0.0000000000e+00
4.0000000000e-01 0.0000000000e+00 0.0000000000e+00
4.1000000000e-01 0.0000000000e+00 0.0000000000e+00
4.2000000000e-01 0.0000000000e+00 0.0000000000e+00
4.3000000000e-01 0.0000000000e+00 0.0000000000e+00
4.4000000000e-01 0.0000000000e+00 0.0000000000e+00
4.5000000000e-01 0.0000000000e+00 0.0000000000e+00
4.6000000000e-01 0.0000000000e+00 0.0000000000e+00
4.7000000000e-01 0.0000000000e+00 0.0000000000e+00
4.8000000000e-01 0.0000000000e+00 0.0000000000e+00
4.9000000000e-01 0.0000000000e+00 0.0000000000e+00
5.0000000000e-01 0.0000000000e+00 0.0000000000e+00
5.1000000000e-01 0.0000000000e+00 0.0000000000e+00
5.2000000000e-01 0.0000000000e+00 0.0000000000e+00
5.3000000000e-01 0.0000000000e+00 0.0000000000e+00
5.4000000000e-01 0.0000000000e+00 0.0000000000e+00
5.5000000000e-01 0.0000000000e+00 0.0000000000e+00
5.6000000000e-01 0.0000000000e+00 0.0000000000e+00
5.7000000000e-01 0.0000000000e+00 0.0000000000e+00
5.8000000000e-01 0.0000000000e+00 0.0000000000e+00
5.9000000000e-01 0.0000000000e+00 0.0000000000e+00
6.0000000000e-01 0.0000000000e+00 0.0000000000e+00
6.1000000000e-01 0.0000000000e+00 0.0000000000e+00
6.2000000000e-01 0.0000000000e+00 0.0000000000e+00
6.3000000000e-01 0.0000000000e+00 0.0000000000e+00
6.4000000000e-01 0.0000000000e+00 0.0000000000e+00
6.5000000000e-01 0.0000000000e+00 0.0000000000e+00
6.6000000000e-01 0.0000000000e+00 0.0000000000e+00
6.7000000000e-01 0.0000000000e+00 0.0000000000e+00
6.8000000000e-01 0.0000000000e+00 0.0000000000e+00
6.9000000000e-01 0.0000000000e+00 0.0000000000e+00
7.0000000000e-01 0.0000000000e+00 0.0000000000e+00
7.1000000000e-01 0.0000000000e+00 0.0000000000e+00
7.2000000000e-01 0.0000000000e+00 0.0000000000e+00
7.3000000000e-01 0.0000000000e+00 0.0000000000e+00
7.4000000000e-01 0.0000000000e+00 0.0000000000e+00
7.5000000000e-01 0.0000000000e+00 0.0000000000e+00
7.6000000000e-01 0.0000000000e+00 0.0000000000e+00
7.7000000000e-01 0.0000000000e+00 0.0000000000e+00
7.8000000000e-01 0.0000000000e+00 0.0000000000e+00
7.9000000000e-01 0.0000000000e+00 0.0000000000e+00
8.0000000000e-01 0.0000000000e+00 0.0000000000e+00
8.1000000000e-01 0.0000000000e+00 0.0000000000e+00
8.2000000000e-01 0.0000000000e+00 0.0000000000e+00
8.3000000000e-01 0.0000000000e+00 0.0000000000e+00
8.4000000000e-01 0.0000000000e+00 0.0000000000e+00
8.5000000000e-01 0.0000000000e+00 0.0000000000e+00
8.6000000000e-01 0.0000000000e+00 0.0000000000e+00
8.7000000000e-01 0.0000000000e+00 0.0000000000e+00
8.8000000000e-01 0.0000000000e+00 0.0000000000e+00
8.9000000000e-01 0.0000000000e+00 0.0000000000e+00
9.0000000000e-01 0.0000000000e+00 0.0000000000e+00
9.1000000000e-01 0.0000000000e+00 0.0000000000e+00
9.2000000000e-01 0.0000000000e+00 0.0000000000e+00
9.3000000000e-01 0.0000000000e+00 0.0000000000e+00
9.4000000000e-01 0.0000000000e+00 0.0000000000e+00
9.5000000000e-01 0.0000000000e+00 0.0000000000e+00
9.6000000000e-01 0.0000000000e+00 0.0000000000e+00
9.7000000000e-01 0.0000000000e+00 0.0000000000e+00
9.8000000000e-01 0.0000000000e+00 0.0000000000e+00
9.9000000000e-01 0.0000000000e+00 0.0000000000e+00
1.0000000000e+00 0.0000000000e+00 0.0000000000e+00
0.0000000000e+00 1.0000000000e-02 0.0000000000e+00
1.0000000000e-02 1.0000000000e-02 0.0000000000e+00
2.0000000000e-02 1.0000000000e-02 0.0000000000e+00
3.0000000000e-02 1.0000000000e-02 0.0000000000e+00
4.0000000000e-02 1.0000000000e-02 0.0000000000e+00
5.0000000000e-02 1.0000000000e-02 0.0000000000e+00
6.0000000000e-02 1.0000000000e-02 0.0000000000e+00
7.0000000000e-02 1.0000000000e-02 0.0000000000e+00
8.0000000000e-02 1.0000000000e-02 0.0000000000e+00
9.0000000000e-02 1.0000000000e-02 0.0000000000e+00
1.0000000000e-01 1.0000000000e-02 0.0000000000e+00
1.1000000000e-01 1.0000000000e-02 0.0000000000e+00
1.2000000000e-01 1.0000000000e-02 0.0000000000e+00
1.3000000000e-01 1.0000000000e-02 0.0000000000e+00
1.4000000000e-01 1.0000000000e-02 0.0000000000e+00
1.5000000000e-01 1.0000000000e-02 0.0000000000e+00
1.6000000000e-01 1.0000000000e-02 0.0000000000e+00
1.7000000000e-01 1.0000000000e-02 0.0000000000e+00
1.8000000000e-01 1.0000000000e-02 0.0000000000e+00
1.9000000000e-01 1.0000000000e-02 0.0000000000e+00
2.0000000000e-01 1.0000000000e-02 0.0000000000e+00
2.1000000000e-01 1.0000000000e-02 0.0000000000e+00
2.2000000000e-01 1.0000000000e-02 0.0000000000e+00
2.3000000000e-01 1.0000000000e-02 0.0000000000e+00
2.4000000000e-01 1.0000000000e-02 0.0000000000e+00
2.5000000000e-01 1.0000000000e-02 0.0000000000e+00
2.6000000000e-01 1.0000000000e-02 0.0000000000e+00
2.7000000000e-01 1.0000000000e-02 0.0000000000e+00
2.8000000000e-01 1.0000000000e-02 0.0000000000e+00
2.9000000000e-01 1.0000000000e-02 0.0000000000e+00
3.0000000000e-01 1.0000000000e-02 0.0000000000e+00
3.1000000000e-01 1.0000000000e-02 0.0000000000e+00
3.2000000000e-01 1.0000000000e-02 0.0000000000e+00
3.3000000000e-01 1.0000000000e-02 0.0000000000e+00
3.4000000000e-01 1.0000000000e-02 0.0000000000e+00
3.5000000000e-01 1.0000000000e-02 0.0000000000e+00
3.6000000000e-01 1.0000000000e-02 0.0000000000e+00
3.7000000000e-01 1.0000000000e-02 0.0000000000e+00
3.8000000000e-01 1.0000000000e-02 0.0000000000e+00
3.9000000000e-01 1.0000000000e-02 0.0000000000e+00
4.0000000000e-01 1.0000000000e-02 0.0000000000e+00
4.1000000000e-01 1.0000000000e-02 0.0000000000e+00
4.2000000000e-01 1.0000000000e-02 0.0000000000e+00
4.3000000000e-01 1.0000000000e-02 0.0000000000e+00
4.4000000000e-01 1.0000000000e-02 0.0000000000e+00
4.5000000000e-01 1.0000000000e-02 0.0000000000e+00
4.6000000000e-01 1.0000000000e-02 0.0000000000e+00
4.7000000000e-01 1.0000000000e-02 0.0000000000e+00
4.8000000000e-01 1.0000000000e-02 0.0000000000e+00
4.9000000000e-01 1.0000000000e-02 0.0000000000e+00
5.0000000000e-01 1.0000000000e-02 0.0000000000e+00
5.1000000000e-01 1.0000000000e-02 0.0000000000e+00
5.2000000000e-01 1.0000000000e-02 0.0000000000e+00
5.3000000000e-01 1.0000000000e-02 0.0000000000e+00
5.4000000000e-01 1.0000000000e-02 0.0000000000e+00
5.5000000000e-01 1.0000000000e-02 0.0000000000e+00
5.6000000000e-01 1.0000000000e-02 0.0000000000e+00
5.7000000000e-01 1.0000000000e-02 0.0000000000e+00
5.8000000000e-01 1.0000000000e-02 0.0000000000e+00
5.9000000000e-01 1.0000000000e-02 0.0000000000e+00
6.0000000000e-01 1.0000000000e-02 0.0000000000e+00
6.1000000000e-01 1.0000000000e-02 0.0000000000e+00
6.2000000000e-01 1.0000000000e-02 0.0000000000e+00
6.3000000000e-01 1.0000000000e-02 0.0000000000e+00
6.4000000000e-01 1.0000000000e-02 0.0000000000e+00
6.5000000000e-01 1.0000000000e-02 0.0000000000e+00
6.6000000000e-01 1.0000000000e-02 0.0000000000e+00
6.7000000000e-01 1.0000000000e-02 0.0000000000e+00
6.8000000000e-01 1.0000000000e-02 0.0000000000e+00
6.9000000000e-01 1.0000000000e-02 0.0000000000e+00
7.0000000000e-01 1.0000000000e-02 0.0000000000e+00
7.1000000000e-01 1.0000000000e-02 0.0000000000e+00
7.2000000000e-01 1.0000000000e-02 0.0000000000e+00
7.3000000000e-01 1.0000000000e-02 0.0000000000e+00
7.4000000000e-01 1.0000000000e-02 0.0000000000e+00
7.5000000000e-01 1.0000000000e-02 0.0000000000e+00
7.6000000000e-01 1.0000000000e-02 0.0000000000e+00
7.7000000000e-01 1.0000000000e-02 0.0000000000e+00
7.8000000000e-01 1.0000000000e-02 0.0000000000e+00
7.9000000000e-01 1.0000000000e-02 0.0000000000e+00
8.0000000000e-01 1.0000000000e-02 0.0000000000e+00
8.1000000000e-01 1.0000000000e-02 0.0000000000e+00
8.2000000000e-01 1.0000000000e-02 0.0000000000e+00
8.3000000000e-01 1.0000000000e-02 0.0000000000e+00
8.4000000000e-01 1.0000000000e-02 0.0000000000e+00
8.5000000000e-01 1.0000000000e-02 0.0000000000e+00
8.6000000000e-01 1.0000000000e-02 0.0000000000e+00
8.7000000000e-01 1.0000000000e-02 0.0000000000e+00
8.8000000000e-01 1.0000000000e-02 0.0000000000e+00
8.9000000000e-01 1.0000000000e-02 0.0000000000e+00
9.0000000000e-01 1.0000000000e-02 0.0000000000e+00
9.1000000000e-01 1.0000000000e-02 0.0000000000e+00
9.2000000000e-01 1.0000000000e-02 0.0000000000e+00
[...]
CELL_DATA 10000

SCALARS massDensity float
LOOKUP_TABLE default
1.2006479935e+00
1.2006663077e+00
1.2006931550e+00
1.2007339892e+00
1.2007882729e+00
1.2008553326e+00
1.2009343740e+00
1.2010244946e+00
1.2011246962e+00
1.2012339016e+00
1.2013509701e+00
1.2014747172e+00
1.2016039326e+00
1.2017373997e+00
1.2018739132e+00
1.2020122968e+00
1.2021514191e+00
1.2022902076e+00
1.2024276608e+00
1.2025628589e+00
1.2026949715e+00
1.2028232633e+00
1.2029470980e+00
1.2030659395e+00
1.2031793516e+00
1.2032869956e+00
1.2033886260e+00
1.2034840860e+00
1.2035733000e+00
1.2036562671e+00
1.2037330522e+00
1.2038037785e+00
1.2038686184e+00
1.2039277850e+00
1.2039815244e+00
1.2040301074e+00
1.2040738223e+00
1.2041129685e+00
1.2041478508e+00
1.2041787739e+00
1.2042060383e+00
1.2042299370e+00
1.2042507521e+00
1.2042687534e+00
1.2042841966e+00
1.2042973223e+00
1.2043083558e+00
1.2043175069e+00
1.2043249702e+00
1.2043309257e+00
1.2043355391e+00
1.2043389635e+00
1.2043413390e+00
1.2043427944e+00
1.2043434477e+00
1.2043434070e+00
1.2043427708e+00
1.2043416295e+00
1.2043400648e+00
1.2043381511e+00
1.2043359558e+00
1.2043335392e+00
1.2043309556e+00
1.2043282533e+00
1.2043254748e+00
1.2043226574e+00
1.2043198335e+00
1.2043170310e+00
1.2043142734e+00
1.2043115804e+00
1.2043089682e+00
1.2043064495e+00
1.2043040344e+00
1.2043017301e+00
1.2042995415e+00
1.2042974714e+00
1.2042955208e+00
1.2042936888e+00
1.2042919733e+00
1.2042903708e+00
1.2042888769e+00
1.2042874862e+00
1.2042861932e+00
1.2042849918e+00
1.2042838767e+00
1.2042828430e+00
1.2042818872e+00
1.2042810080e+00
1.2042802063e+00
1.2042794863e+00
1.2042788555e+00
1.2042783255e+00
1.2042779121e+00
1.2042776365e+00
1.2042775276e+00
1.2042776259e+00
1.2042779911e+00
1.2042787101e+00
1.2042799006e+00
1.2042722146e+00
1.2006663077e+00
1.2006857786e+00
1.2007131590e+00
1.2007542607e+00
1.2008086127e+00
1.2008755865e+00
1.2009544178e+00
1.2010442241e+00
1.2011440222e+00
1.2012527449e+00
1.2013692608e+00
1.2014923919e+00
1.2016209346e+00
1.2017536772e+00
1.2018894195e+00
1.2020269891e+00
1.2021652586e+00
1.2023031588e+00
1.2024396917e+00
1.2025739404e+00
1.2027050776e+00
1.2028323709e+00
1.2029551873e+00
1.2030729935e+00
1.2031853568e+00
1.2032919420e+00
1.2033925076e+00
1.2034869006e+00
1.2035750501e+00
1.2036569595e+00
1.2037326994e+00
1.2038023980e+00
1.2038662338e+00
1.2039244258e+00
1.2039772266e+00
1.2040249131e+00
1.2040677804e+00
1.2041061344e+00
1.2041402859e+00
1.2041705457e+00
1.2041972198e+00
1.2042206058e+00
1.2042409904e+00
1.2042586462e+00
1.2042738316e+00
1.2042867881e+00
1.2042977415e+00
1.2043069005e+00
1.2043144576e+00
1.2043205898e+00
1.2043254589e+00
1.2043292126e+00
1.2043319858e+00
1.2043339007e+00
1.2043350688e+00
1.2043355911e+00
1.2043355593e+00
1.2043350565e+00
1.2043341578e+00
1.2043329313e+00
1.2043314382e+00
1.2043297333e+00
1.2043278662e+00
1.2043258805e+00
1.2043238151e+00
1.2043217039e+00
1.2043195767e+00
1.2043174588e+00
1.2043153721e+00
1.2043133343e+00
1.2043113605e+00
1.2043094621e+00
1.2043076482e+00
1.2043059252e+00
1.2043042973e+00
1.2043027666e+00
1.2043013335e+00
1.2042999968e+00
1.2042987541e+00
1.2042976018e+00
1.2042965355e+00
1.2042955501e+00
1.2042946402e+00
1.2042938004e+00
1.2042930253e+00
1.2042923103e+00
1.2042916516e+00
1.2042910466e+00
1.2042904944e+00
1.2042899956e+00
1.2042895532e+00
1.2042891718e+00
1.2042888584e+00
1.2042886220e+00
1.2042884742e+00
1.2042884288e+00
1.2042885013e+00
1.2042887045e+00
1.2042890342e+00
1.2042796231e+00
1.2006931550e+00
1.2007131590e+00
1.2007405861e+00
1.2007815522e+00
1.2008356131e+00
1.2009021632e+00
1.2009804563e+00
1.2010696250e+00
1.2011686984e+00
1.2012766215e+00
1.2013922730e+00
1.2015144860e+00
1.2016420661e+00
1.2017738118e+00
1.2019085315e+00
1.2020450626e+00
1.2021822853e+00
1.2023191387e+00
1.2024546317e+00
1.2025878545e+00
1.2027179854e+00
1.2028442977e+00
1.2029661626e+00
1.2030830515e+00
1.2031945344e+00
1.2033002793e+00
1.2034000464e+00
1.2034936848e+00
1.2035811243e+00
1.2036623693e+00
1.2037374903e+00
1.2038066159e+00
1.2038699236e+00
1.2039276323e+00
1.2039799931e+00
1.2040272824e+00
1.2040697935e+00
1.2041078312e+00
1.2041417043e+00
1.2041717221e+00
1.2041981884e+00
1.2042213989e+00
1.2042416376e+00
1.2042591753e+00
1.2042742671e+00
1.2042871526e+00
1.2042980542e+00
1.2043071783e+00
1.2043147143e+00
1.2043208365e+00
1.2043257039e+00
1.2043294620e+00
1.2043322429e+00
1.2043341671e+00
1.2043353439e+00
1.2043358730e+00
1.2043358447e+00
1.2043353415e+00
1.2043344378e+00
1.2043332017e+00
1.2043316944e+00
1.2043299714e+00
1.2043280827e+00
1.2043260729e+00
1.2043239820e+00
1.2043218450e+00
1.2043196927e+00
1.2043175516e+00
1.2043154444e+00
1.2043133901e+00
1.2043114040e+00
1.2043094984e+00
1.2043076828e+00
1.2043059635e+00
1.2043043450e+00
1.2043028290e+00
1.2043014157e+00
1.2043001034e+00
1.2042988893e+00
1.2042977690e+00
1.2042967377e+00
1.2042957896e+00
1.2042949186e+00
1.2042941188e+00
1.2042933842e+00
1.2042927094e+00
1.2042920897e+00
1.2042915215e+00
1.2042910023e+00
1.2042905311e+00
1.2042901080e+00
1.2042897346e+00
1.2042894133e+00
1.2042891472e+00
1.2042889390e+00
1.2042887895e+00
1.2042886942e+00
1.2042886354e+00
1.2042885672e+00
1.2042782793e+00
1.2007339892e+00
1.2007542607e+00
1.2007815522e+00
1.2008221923e+00
1.2008757456e+00
1.2009416193e+00
1.2010190829e+00
1.2011072833e+00
1.2012052653e+00
1.2013119878e+00
1.2014263450e+00
1.2015471838e+00
1.2016733251e+00
1.2018035807e+00
1.2019367738e+00
1.2020717538e+00
1.2022074148e+00
1.2023427069e+00
1.2024766509e+00
1.2026083463e+00
1.2027369814e+00
1.2028618369e+00
1.2029822917e+00
1.2030978226e+00
1.2032080054e+00
1.2033125112e+00
1.2034111042e+00
1.2035036349e+00
1.2035900350e+00
1.2036703092e+00
1.2037445283e+00
1.2038128199e+00
1.2038753609e+00
1.2039323683e+00
1.2039840917e+00
1.2040308048e+00
1.2040727991e+00
1.2041103761e+00
1.2041438423e+00
1.2041735035e+00
1.2041996608e+00
1.2042226062e+00
1.2042426208e+00
1.2042599715e+00
1.2042749102e+00
1.2042876726e+00
1.2042984778e+00
1.2043075283e+00
1.2043150104e+00
1.2043210946e+00
1.2043259372e+00
1.2043296799e+00
1.2043324526e+00
1.2043343728e+00
1.2043355480e+00
1.2043360757e+00
1.2043360451e+00
1.2043355371e+00
1.2043346258e+00
1.2043333786e+00
1.2043318569e+00
1.2043301164e+00
1.2043282076e+00
1.2043261758e+00
1.2043240619e+00
1.2043219018e+00
1.2043197273e+00
1.2043175660e+00
1.2043154415e+00
1.2043133734e+00
1.2043113778e+00
1.2043094677e+00
1.2043076526e+00
1.2043059393e+00
1.2043043319e+00
1.2043028324e+00
1.2043014404e+00
1.2043001540e+00
1.2042989696e+00
1.2042978827e+00
1.2042968874e+00
1.2042959777e+00
1.2042951468e+00
1.2042943879e+00
1.2042936946e+00
1.2042930605e+00
1.2042924801e+00
1.2042919487e+00
1.2042914623e+00
1.2042910181e+00
1.2042906140e+00
1.2042902485e+00
1.2042899203e+00
1.2042896276e+00
1.2042893667e+00
1.2042891299e+00
1.2042889023e+00
1.2042886550e+00
1.2042883352e+00
1.2042775773e+00
1.2007882729e+00
1.2008086127e+00
1.2008356131e+00
1.2008757456e+00
1.2009285769e+00
1.2009935252e+00
1.2010698722e+00
1.2011567817e+00
1.2012533143e+00
1.2013584477e+00
1.2014710932e+00
1.2015901174e+00
1.2017143586e+00
1.2018426482e+00
1.2019738263e+00
1.2021067612e+00
1.2022403623e+00
1.2023735969e+00
1.2025054993e+00
1.2026351837e+00
1.2027618494e+00
1.2028847891e+00
1.2030033901e+00
1.2031171381e+00
1.2032256145e+00
1.2033284968e+00
1.2034255521e+00
1.2035166344e+00
1.2036016765e+00
1.2036806843e+00
1.2037537277e+00
1.2038209339e+00
1.2038824775e+00
1.2039385736e+00
1.2039894687e+00
1.2040354336e+00
1.2040767558e+00
1.2041137334e+00
1.2041466687e+00
1.2041758636e+00
1.2042016144e+00
1.2042242093e+00
1.2042439243e+00
1.2042610224e+00
1.2042757507e+00
1.2042883407e+00
1.2042990067e+00
1.2043079472e+00
1.2043153441e+00
1.2043213641e+00
1.2043261593e+00
1.2043298685e+00
1.2043326176e+00
1.2043345217e+00
1.2043356854e+00
1.2043362044e+00
1.2043361656e+00
1.2043356491e+00
1.2043347276e+00
1.2043334682e+00
1.2043319319e+00
1.2043301745e+00
1.2043282469e+00
1.2043261950e+00
1.2043240603e+00
1.2043218797e+00
1.2043196858e+00
1.2043175071e+00
1.2043153679e+00
1.2043132887e+00
1.2043112862e+00
1.2043093738e+00
1.2043075614e+00
1.2043058559e+00
1.2043042615e+00
1.2043027799e+00
1.2043014106e+00
1.2043001513e+00
1.2042989980e+00
1.2042979454e+00
1.2042969875e+00
1.2042961172e+00
1.2042953274e+00
1.2042946107e+00
1.2042939597e+00
1.2042933674e+00
1.2042928274e+00
1.2042923339e+00
1.2042918817e+00
1.2042914662e+00
1.2042910835e+00
1.2042907296e+00
1.2042904005e+00
1.2042900908e+00
1.2042897928e+00
1.2042894945e+00
1.2042891771e+00
1.2042888106e+00
1.2042883486e+00
1.2042774178e+00
1.2008553326e+00
1.2008755865e+00
1.2009021632e+00
1.2009416193e+00
1.2009935252e+00
1.2010573072e+00
1.2011322623e+00
1.2012175699e+00
1.2013123107e+00
1.2014154819e+00
1.2015260175e+00
1.2016428050e+00
1.2017647066e+00
1.2018905747e+00
1.2020192732e+00
1.2021496902e+00
1.2022807574e+00
1.2024114601e+00
1.2025408523e+00
1.2026680633e+00
1.2027923090e+00
1.2029128942e+00
1.2030292189e+00
1.2031407777e+00
1.2032471613e+00
1.2033480523e+00
1.2034432238e+00
1.2035325322e+00
1.2036159130e+00
1.2036933719e+00
1.2037649793e+00
1.2038308598e+00
1.2038911867e+00
1.2039461711e+00
1.2039960564e+00
1.2040411089e+00
1.2040816118e+00
1.2041178580e+00
1.2041501450e+00
1.2041787689e+00
1.2042040213e+00
1.2042261843e+00
1.2042455290e+00
1.2042623123e+00
1.2042767766e+00
1.2042891473e+00
1.2042996342e+00
1.2043084303e+00
1.2043157129e+00
1.2043216440e+00
1.2043263714e+00
1.2043300295e+00
1.2043327412e+00
1.2043346177e+00
1.2043357610e+00
1.2043362641e+00
1.2043362123e+00
1.2043356834e+00
1.2043347496e+00
1.2043334768e+00
1.2043319257e+00
1.2043301520e+00
1.2043282068e+00
1.2043261365e+00
1.2043239832e+00
1.2043217844e+00
1.2043195735e+00
1.2043173799e+00
1.2043152285e+00
1.2043131406e+00
1.2043111335e+00
1.2043092209e+00
1.2043074131e+00
1.2043057172e+00
1.2043041373e+00
1.2043026751e+00
1.2043013298e+00
1.2043000988e+00
1.2042989776e+00
1.2042979606e+00
1.2042970411e+00
1.2042962116e+00
1.2042954642e+00
1.2042947910e+00
1.2042941839e+00
1.2042936353e+00
1.2042931377e+00
1.2042926844e+00
1.2042922691e+00
1.2042918860e+00
1.2042915295e+00
1.2042911939e+00
1.2042908732e+00
1.2042905598e+00
1.2042902440e+00
1.2042899125e+00
1.2042895462e+00
1.2042891188e+00
1.2042885936e+00
1.2042777097e+00
1.2009343740e+00
1.2009544178e+00
1.2009804563e+00
1.2010190829e+00
1.2010698722e+00
1.2011322623e+00
1.2012055640e+00
1.2012889768e+00
1.2013816013e+00
1.2014824593e+00
1.2015905082e+00
1.2017046625e+00
1.2018238090e+00
1.2019468282e+00
1.2020726080e+00
1.2022000636e+00
1.2023281493e+00
1.2024558750e+00
1.2025823143e+00
1.2027066181e+00
1.2028280184e+00
1.2029458373e+00
1.2030594873e+00
1.2031684756e+00
1.2032724014e+00
1.2033709562e+00
1.2034639174e+00
1.2035511464e+00
1.2036325798e+00
1.2037082251e+00
1.2037781507e+00
1.2038424805e+00
1.2039013837e+00
1.2039550688e+00
1.2040037737e+00
1.2040477602e+00
1.2040873054e+00
1.2041226968e+00
1.2041542252e+00
1.2041821810e+00
1.2042068485e+00
1.2042285043e+00
1.2042474122e+00
1.2042638234e+00
1.2042779732e+00
1.2042900819e+00
1.2043003524e+00
1.2043089726e+00
1.2043161139e+00
1.2043219335e+00
1.2043265739e+00
1.2043301655e+00
1.2043328265e+00
1.2043346652e+00
1.2043357798e+00
1.2043362608e+00
1.2043361909e+00
1.2043356467e+00
1.2043346983e+00
1.2043334111e+00
1.2043318449e+00
1.2043300556e+00
1.2043280939e+00
1.2043260068e+00
1.2043238366e+00
1.2043216217e+00
1.2043193962e+00
1.2043171898e+00
1.2043150286e+00
1.2043129341e+00
1.2043109244e+00
1.2043090136e+00
1.2043072121e+00
1.2043055273e+00
1.2043039634e+00
1.2043025219e+00
1.2043012019e+00
1.2043000004e+00
1.2042989126e+00
1.2042979324e+00
1.2042970527e+00
1.2042962654e+00
1.2042955621e+00
1.2042949342e+00
1.2042943732e+00
1.2042938705e+00
1.2042934181e+00
1.2042930085e+00
1.2042926343e+00
1.2042922887e+00
1.2042919650e+00
1.2042916564e+00
1.2042913554e+00
1.2042910535e+00
1.2042907405e+00
1.2042904030e+00
1.2042900241e+00
1.2042895821e+00
1.2042890501e+00
1.2042783802e+00
1.2010244946e+00
1.2010442241e+00
1.2010696250e+00
1.2011072833e+00
1.2011567817e+00
1.2012175699e+00
1.2012889768e+00
1.2013702213e+00
1.2014604290e+00
1.2015586462e+00
1.2016638596e+00
1.2017750110e+00
1.2018910184e+00
1.2020107903e+00
1.2021332457e+00
1.2022573269e+00
1.2023820174e+00
1.2025063515e+00
1.2026294292e+00
1.2027504220e+00
1.2028685839e+00
1.2029832533e+00
1.2030938600e+00
1.2031999232e+00
1.2033010542e+00
1.2033969517e+00
1.2034874010e+00
1.2035722665e+00
1.2036514883e+00
1.2037250735e+00
1.2037930908e+00
1.2038556606e+00
1.2039129497e+00
1.2039651611e+00
1.2040125283e+00
1.2040553064e+00
1.2040937667e+00
1.2041281891e+00
1.2041588579e+00
1.2041860554e+00
1.2042100595e+00
1.2042311383e+00
1.2042495491e+00
1.2042655351e+00
1.2042793253e+00
1.2042911322e+00
1.2043011530e+00
1.2043095683e+00
1.2043165441e+00
1.2043222313e+00
1.2043267678e+00
1.2043302785e+00
1.2043328775e+00
1.2043346687e+00
1.2043357473e+00
1.2043362003e+00
1.2043361084e+00
1.2043355455e+00
1.2043345809e+00
1.2043332781e+00
1.2043316969e+00
1.2043298923e+00
1.2043279152e+00
1.2043258125e+00
1.2043236273e+00
1.2043213981e+00
1.2043191598e+00
1.2043169429e+00
1.2043147737e+00
1.2043126747e+00
1.2043106642e+00
1.2043087569e+00
1.2043069634e+00
1.2043052912e+00
1.2043037447e+00
1.2043023253e+00
1.2043010318e+00
1.2042998611e+00
1.2042988080e+00
1.2042978661e+00
1.2042970276e+00
1.2042962842e+00
1.2042956270e+00
1.2042950468e+00
1.2042945343e+00
1.2042940807e+00
1.2042936772e+00
1.2042933155e+00
1.2042929876e+00
1.2042926860e+00
1.2042924030e+00
1.2042921311e+00
1.2042918623e+00
1.2042915877e+00
1.2042912972e+00
1.2042909787e+00
1.2042906178e+00
1.2042901977e+00
1.2042896993e+00
1.2042793748e+00
1.2011246962e+00
1.2011440222e+00
1.2011686984e+00
1.2012052653e+00
1.2012533143e+00
1.2013123107e+00
1.2013816013e+00
1.2014604290e+00
1.2015479440e+00
1.2016432226e+00
1.2017452804e+00
1.2018530929e+00
1.2019656088e+00
1.2020817714e+00
1.2022005304e+00
1.2023208618e+00
1.2024417780e+00
1.2025623441e+00
1.2026816854e+00
1.2027990003e+00
1.2029135636e+00
1.2030247355e+00
1.2031319615e+00
1.2032347773e+00
1.2033328046e+00
1.2034257535e+00
1.2035134146e+00
1.2035956587e+00
1.2036724271e+00
1.2037437289e+00
1.2038096304e+00
1.2038702508e+00
1.2039257515e+00
1.2039763317e+00
1.2040222177e+00
1.2040636589e+00
1.2041009183e+00
1.2041342689e+00
1.2041639860e+00
1.2041903448e+00
1.2042136137e+00
1.2042340534e+00
1.2042519123e+00
1.2042674262e+00
1.2042808156e+00
1.2042922860e+00
1.2043020265e+00
1.2043102116e+00
1.2043170000e+00
1.2043225370e+00
1.2043269540e+00
1.2043303714e+00
1.2043328979e+00
1.2043346335e+00
1.2043356693e+00
1.2043360894e+00
1.2043359714e+00
1.2043353875e+00
1.2043344047e+00
1.2043330858e+00
1.2043314892e+00
1.2043296697e+00
1.2043276779e+00
1.2043255611e+00
1.2043233622e+00
1.2043211205e+00
1.2043188712e+00
1.2043166454e+00
1.2043144702e+00
1.2043123684e+00
1.2043103590e+00
1.2043084567e+00
1.2043066727e+00
1.2043050147e+00
1.2043034870e+00
1.2043020909e+00
1.2043008254e+00
1.2042996868e+00
1.2042986699e+00
1.2042977678e+00
1.2042969725e+00
1.2042962751e+00
1.2042956662e+00
1.2042951363e+00
1.2042946757e+00
1.2042942748e+00
1.2042939245e+00
1.2042936159e+00
1.2042933404e+00
1.2042930898e+00
1.2042928562e+00
1.2042926316e+00
1.2042924077e+00
1.2042921758e+00
1.2042919264e+00
1.2042916490e+00
1.2042913317e+00
1.2042909618e+00
1.2042905263e+00
1.2042806547e+00
1.2012339016e+00
1.2012527449e+00
1.2012766215e+00
1.2013119878e+00
1.2013584477e+00
1.2014154819e+00
1.2014824593e+00
1.2015586462e+00
1.2016432226e+00
1.2017352941e+00
1.2018339111e+00
1.2019380816e+00
1.2020467921e+00
1.2021590192e+00
1.2022737504e+00
1.2023899941e+00
1.2025067981e+00
1.2026232572e+00
1.2027385284e+00
1.2028518352e+00
1.2029624791e+00
1.2030698403e+00
1.2031733851e+00
1.2032726635e+00
1.2033673125e+00
1.2034570504e+00
1.2035416777e+00
1.2036210685e+00
1.2036951687e+00
1.2037639863e+00
1.2038275881e+00
1.2038860887e+00
1.2039396468e+00
1.2039884543e+00
1.2040327323e+00
1.2040727214e+00
1.2041086778e+00
1.2041408647e+00
1.2041695496e+00
1.2041949975e+00
1.2042174687e+00
1.2042372140e+00
1.2042544736e+00
1.2042694736e+00
1.2042824268e+00
1.2042935296e+00
1.2043029641e+00
1.2043108964e+00
1.2043174789e+00
1.2043228495e+00
1.2043271342e+00
1.2043304470e+00
1.2043328923e+00
1.2043345649e+00
1.2043355524e+00
1.2043359350e+00
1.2043357879e+00
1.2043351804e+00
1.2043341781e+00
1.2043328421e+00
1.2043312301e+00
1.2043293960e+00
1.2043273904e+00
1.2043252603e+00
1.2043230491e+00
1.2043207963e+00
1.2043185377e+00
1.2043163048e+00
1.2043141253e+00
1.2043120224e+00
1.2043100155e+00
1.2043081199e+00
1.2043063470e+00
1.2043047046e+00
1.2043031971e+00
1.2043018259e+00
1.2043005896e+00
1.2042994848e+00
1.2042985058e+00
1.2042976454e+00
1.2042968952e+00
1.2042962462e+00
1.2042956885e+00
1.2042952121e+00
1.2042948069e+00
1.2042944630e+00
1.2042941708e+00
1.2042939208e+00
1.2042937043e+00
1.2042935127e+00
1.2042933376e+00
1.2042931710e+00
1.2042930046e+00
1.2042928301e+00
1.2042926388e+00
1.2042924216e+00
1.2042921691e+00
1.2042918719e+00
1.2042915210e+00
1.2042821940e+00
1.2013509701e+00
1.2013692608e+00
1.2013922730e+00
1.2014263450e+00
1.2014710932e+00
1.2015260175e+00
1.2015905082e+00
1.2016638596e+00
1.2017452804e+00
1.2018339111e+00
1.2019288354e+00
1.2020291005e+00
1.2021337284e+00
1.2022417363e+00
1.2023521472e+00
1.2024640091e+00
1.2025764032e+00
1.2026884604e+00
1.2027993672e+00
1.2029083787e+00
1.2030148205e+00
1.2031180985e+00
1.2032176974e+00
1.2033131865e+00
1.2034042149e+00
1.2034905143e+00
1.2035718914e+00
1.2036482277e+00
1.2037194705e+00
1.2037856302e+00
1.2038467704e+00
1.2039030042e+00
1.2039544840e+00
1.2040013971e+00
1.2040439559e+00
1.2040823942e+00
1.2041169581e+00
1.2041479027e+00
1.2041754849e+00
1.2041999608e+00
1.2042215800e+00
1.2042405842e+00
1.2042572031e+00
1.2042716544e+00
1.2042841405e+00
1.2042948502e+00
1.2043039561e+00
1.2043116172e+00
1.2043179775e+00
1.2043231688e+00
1.2043273098e+00
1.2043305092e+00
1.2043328655e+00
1.2043344693e+00
1.2043354034e+00
1.2043357451e+00
1.2043355658e+00
1.2043349330e+00
1.2043339098e+00
1.2043325561e+00
1.2043309284e+00
1.2043290801e+00
1.2043270613e+00
1.2043249190e+00
1.2043226967e+00
1.2043204343e+00
1.2043181678e+00
1.2043159294e+00
1.2043137470e+00
1.2043116447e+00
1.2043096420e+00
1.2043077546e+00
1.2043059943e+00
1.2043043690e+00
1.2043028833e+00
1.2043015385e+00
1.2043003333e+00
1.2042992639e+00
1.2042983247e+00
1.2042975081e+00
1.2042968056e+00
1.2042962076e+00
1.2042957041e+00
1.2042952847e+00
1.2042949390e+00
1.2042946567e+00
1.2042944279e+00
1.2042942428e+00
1.2042940924e+00
1.2042939677e+00
1.2042938604e+00
1.2042937624e+00
1.2042936656e+00
1.2042935621e+00
1.2042934442e+00
1.2042933040e+00
1.2042931339e+00
1.2042929270e+00
1.2042926775e+00
1.2042839762e+00
1.2014747172e+00
1.2014923919e+00
1.2015144860e+00
1.2015471838e+00
1.2015901174e+00
1.2016428050e+00
1.2017046625e+00
1.2017750110e+00
1.2018530929e+00
1.2019380816e+00
1.2020291005e+00
1.2021252333e+00
1.2022255445e+00
1.2023290891e+00
1.2024349328e+00
1.2025421601e+00
1.2026498925e+00
1.2027572944e+00
1.2028635884e+00
1.2029680579e+00
1.2030700589e+00
1.2031690198e+00
1.2032644493e+00
1.2033559327e+00
1.2034431365e+00
1.2035258019e+00
1.2036037466e+00
1.2036768561e+00
1.2037450825e+00
1.2038084353e+00
1.2038669784e+00
1.2039208197e+00
1.2039701080e+00
1.2040150226e+00
1.2040557697e+00
1.2040925731e+00
1.2041256705e+00
1.2041553063e+00
1.2041817280e+00
1.2042051802e+00
1.2042259029e+00
1.2042441267e+00
1.2042600717e+00
1.2042739448e+00
1.2042859395e+00
1.2042962344e+00
1.2043049941e+00
1.2043123684e+00
1.2043184941e+00
1.2043234949e+00
1.2043274836e+00
1.2043305619e+00
1.2043328234e+00
1.2043343532e+00
1.2043352303e+00
1.2043355277e+00
1.2043353141e+00
1.2043346542e+00
1.2043336092e+00
1.2043322373e+00
1.2043305939e+00
1.2043287317e+00
1.2043267004e+00
1.2043245468e+00
1.2043223146e+00
1.2043200438e+00
1.2043177709e+00
1.2043155285e+00
1.2043133450e+00
1.2043112448e+00
1.2043092479e+00
1.2043073705e+00