# vtk DataFile Version 2.0
Blank
ASCII
DATASET STRUCTURED_GRID
DIMENSIONS 101 101 2
POINTS 20402 float
0.0000000000e+00 0.0000000000e+00 0.0000000000e+00
1.0000000000e-02 0.0000000000e+00 0.0000000000e+00
2.0000000000e-02 0.0000000000e+00 0.0000000000e+00
3.0000000000e-02 0.0000000000e+00 0.0000000000e+00
4.0000000000e-02 0.0000000000e+00 0.0000000000e+00
5.0000000000e-02 0.0000000000e+00 0.0000000000e+00
6.0000000000e-02 0.0000000000e+00 0.0000000000e+00
7.0000000000e-02 0.0000000000e+00 0.0000000000e+00
8.0000000000e-02 0.0000000000e+00 0.0000000000e+00
9.0000000000e-02 0.0000000000e+00 0.0000000000e+00
1.0000000000e-01 0.0000000000e+00 0.0000000000e+00
1.1000000000e-01 0.0000000000e+00 0.0000000000e+00
1.2000000000e-01 0.0000000000e+00 0.0000000000e+00
1.3000000000e-01 0.0000000000e+00 0.0000000000e+00
1.4000000000e-01 0.0000000000e+00 0.0000000000e+00
1.5000000000e-01 0.0000000000e+00 0.0000000000e+00
1.6000000000e-01 0.0000000000e+00 0.0000000000e+00
1.7000000000e-01 0.0000000000e+00 0.0000000000e+00
1.8000000000e-01 0.0000000000e+00 0.0000000000e+00
1.9000000000e-01 0.0000000000e+00 0.0000000000e+00
2.0000000000e-01 0.0000000000e+00 0.0000000000e+00
2.1000000000e-01 0.0000000000e+00 0.0000000000e+00
2.2000000000e-01 0.0000000000e+00 0.0000000000e+00
2.3000000000e-01 0.0000000000e+00 0.0000000000e+00
2.4000000000e-01 0.0000000000e+00 0.0000000000e+00
2.5000000000e-01 0.0000000000e+00 0.0000000000e+00
2.6000000000e-01 0.0000000000e+00 0.0000000000e+00
2.7000000000e-01 0.0000000000e+00 0.0000000000e+00
2.8000000000e-01 0.0000000000e+00 0.0000000000e+00
2.9000000000e-01 0.0000000000e+00 0.0000000000e+00
3.0000000000e-01 0.0000000000e+00 0.0000000000e+00
3.1000000000e-01 0.0000000000e+00 0.0000000000e+00
3.2000000000e-01 0.0000000000e+00 0.0000000000e+00
3.3000000000e-01 0.0000000000e+00 0.0000000000e+00
3.4000000000e-01 0.0000000000e+00 0.0000000000e+00
3.5000000000e-01 0.0000000000e+00 0.0000000000e+00
3.6000000000e-01 0.0000000000e+00 0.0000000000e+00
3.7000000000e-01 0.0000000000e+00 0.0000000000e+00
3.8000000000e-01 0.0000000000e+00 0.0000000000e+00
3.9000000000e-01 0.0000000000e+00 0.0000000000e+00
4.0000000000e-01 0.0000000000e+00 0.0000000000e+00
4.1000000000e-01 0.0000000000e+00 0.0000000000e+00
4.2000000000e-01 0.0000000000e+00 0.0000000000e+00
4.3000000000e-01 0.0000000000e+00 0.0000000000e+00
4.4000000000e-01 0.0000000000e+00 0.0000000000e+00
4.5000000000e-01 0.0000000000e+00 0.0000000000e+00
4.6000000000e-01 0.0000000000e+00 0.0000000000e+00
4.7000000000e-01 0.0000000000e+00 0.0000000000e+00
4.8000000000e-01 0.0000000000e+00 0.0000000000e+00
4.9000000000e-01 0.0000000000e+00 0.0000000000e+00
5.0000000000e-01 0.0000000000e+00 0.0000000000e+00
5.1000000000e-01 0.0000000000e+00 0.0000000000e+00
5.2000000000e-01 0.0000000000e+00 0.0000000000e+00
5.3000000000e-01 0.0000000000e+00 0.0000000000e+00
5.4000000000e-01 0.0000000000e+00 0.0000000000e+00
5.5000000000e-01 0.0000000000e+00 0.0000000000e+00
5.6000000000e-01 0.0000000000e+00 0.0000000000e+00
5.7000000000e-01 0.0000000000e+00 0.0000000000e+00
5.8000000000e-01 0.0000000000e+00 0.0000000000e+00
5.9000000000e-01 0.0000000000e+00 0.0000000000e+00
6.0000000000e-01 0.0000000000e+00 0.0000000000e+00
6.1000000000e-01 0.0000000000e+00 0.0000000000e+00
6.2000000000e-01 0.0000000000e+00 0.0000000000e+00
6.3000000000e-01 0.0000000000e+00 0.0000000000e+00
6.4000000000e-01 0.0000000000e+00 0.0000000000e+00
6.5000000000e-01 0.0000000000e+00 0.0000000000e+00
6.6000000000e-01 0.0000000000e+00 0.0000000000e+00
6.7000000000e-01 0.0000000000e+00 0.0000000000e+00
6.8000000000e-01 0.0000000000e+00 0.0000000000e+00
6.9000000000e-01 0.0000000000e+00 0.0000000000e+00
7.0000000000e-01 0.0000000000e+00 0.0000000000e+00
7.1000000000e-01 0.0000000000e+00 0.0000000000e+00
7.2000000000e-01 0.0000000000e+00 0.0000000000e+00
7.3000000000e-01 0.0000000000e+00 0.0000000000e+00
7.4000000000e-01 0.0000000000e+00 0.0000000000e+00
7.5000000000e-01 0.0000000000e+00 0.0000000000e+00
7.6000000000e-01 0.0000000000e+00 0.0000000000e+00
7.7000000000e-01 0.0000000000e+00 0.0000000000e+00
7.8000000000e-01 0.0000000000e+00 0.0000000000e+00
7.9000000000e-01 0.0000000000e+00 0.0000000000e+00
8.0000000000e-01 0.0000000000e+00 0.0000000000e+00
8.1000000000e-01 0.0000000000e+00 0.0000000000e+00
8.2000000000e-01 0.0000000000e+00 0.0000000000e+00
8.3000000000e-01 0.0000000000e+00 0.0000000000e+00
8.4000000000e-01 0.0000000000e+00 0.0000000000e+00
8.5000000000e-01 0.0000000000e+00 0.0000000000e+00
8.6000000000e-01 0.0000000000e+00 0.0000000000e+00
8.7000000000e-01 0.0000000000e+00 0.0000000000e+00
8.8000000000e-01 0.0000000000e+00 0.0000000000e+00
8.9000000000e-01 0.0000000000e+00 0.0000000000e+00
9.0000000000e-01 0.0000000000e+00 0.0000000000e+00
9.1000000000e-01 0.0000000000e+00 0.0000000000e+00
9.2000000000e-01 0.0000000000e+00 0.0000000000e+00
9.3000000000e-01 0.0000000000e+00 0.0000000000e+00
9.4000000000e-01 0.0000000000e+00 0.0000000000e+00
9.5000000000e-01 0.0000000000e+00 0.0000000000e+00
9.6000000000e-01 0.0000000000e+00 0.0000000000e+00
9.7000000000e-01 0.0000000000e+00 0.0000000000e+00
9.8000000000e-01 0.0000000000e+00 0.0000000000e+00
9.9000000000e-01 0.0000000000e+00 0.0000000000e+00
1.0000000000e+00 0.0000000000e+00 0.0000000000e+00
0.0000000000e+00 1.0000000000e-02 0.0000000000e+00
1.0000000000e-02 1.0000000000e-02 0.0000000000e+00
2.0000000000e-02 1.0000000000e-02 0.0000000000e+00
3.0000000000e-02 1.0000000000e-02 0.0000000000e+00
4.0000000000e-02 1.0000000000e-02 0.0000000000e+00
5.0000000000e-02 1.0000000000e-02 0.0000000000e+00
6.0000000000e-02 1.0000000000e-02 0.0000000000e+00
7.0000000000e-02 1.0000000000e-02 0.0000000000e+00
8.0000000000e-02 1.0000000000e-02 0.0000000000e+00
9.0000000000e-02 1.0000000000e-02 0.0000000000e+00
1.0000000000e-01 1.0000000000e-02 0.0000000000e+00
1.1000000000e-01 1.0000000000e-02 0.0000000000e+00
1.2000000000e-01 1.0000000000e-02 0.0000000000e+00
1.3000000000e-01 1.0000000000e-02 0.0000000000e+00
1.4000000000e-01 1.0000000000e-02 0.0000000000e+00
1.5000000000e-01 1.0000000000e-02 0.0000000000e+00
1.6000000000e-01 1.0000000000e-02 0.0000000000e+00
1.7000000000e-01 1.0000000000e-02 0.0000000000e+00
1.8000000000e-01 1.0000000000e-02 0.0000000000e+00
1.9000000000e-01 1.0000000000e-02 0.0000000000e+00
2.0000000000e-01 1.0000000000e-02 0.0000000000e+00
2.1000000000e-01 1.0000000000e-02 0.0000000000e+00
2.2000000000e-01 1.0000000000e-02 0.0000000000e+00
2.3000000000e-01 1.0000000000e-02 0.0000000000e+00
2.4000000000e-01 1.0000000000e-02 0.0000000000e+00
2.5000000000e-01 1.0000000000e-02 0.0000000000e+00
2.6000000000e-01 1.0000000000e-02 0.0000000000e+00
2.7000000000e-01 1.0000000000e-02 0.0000000000e+00
2.8000000000e-01 1.0000000000e-02 0.0000000000e+00
2.9000000000e-01 1.0000000000e-02 0.0000000000e+00
3.0000000000e-01 1.0000000000e-02 0.0000000000e+00
3.1000000000e-01 1.0000000000e-02 0.0000000000e+00
3.2000000000e-01 1.0000000000e-02 0.0000000000e+00
3.3000000000e-01 1.0000000000e-02 0.0000000000e+00
3.4000000000e-01 1.0000000000e-02 0.0000000000e+00
3.5000000000e-01 1.0000000000e-02 0.0000000000e+00
3.6000000000e-01 1.0000000000e-02 0.0000000000e+00
3.7000000000e-01 1.0000000000e-02 0.0000000000e+00
3.8000000000e-01 1.0000000000e-02 0.0000000000e+00
3.9000000000e-01 1.0000000000e-02 0.0000000000e+00
4.0000000000e-01 1.0000000000e-02 0.0000000000e+00
4.1000000000e-01 1.0000000000e-02 0.0000000000e+00
4.2000000000e-01 1.0000000000e-02 0.0000000000e+00
4.3000000000e-01 1.0000000000e-02 0.0000000000e+00
4.4000000000e-01 1.0000000000e-02 0.0000000000e+00
4.5000000000e-01 1.0000000000e-02 0.0000000000e+00
4.6000000000e-01 1.0000000000e-02 0.0000000000e+00
4.7000000000e-01 1.0000000000e-02 0.0000000000e+00
4.8000000000e-01 1.0000000000e-02 0.0000000000e+00
4.9000000000e-01 1.0000000000e-02 0.0000000000e+00
5.0000000000e-01 1.0000000000e-02 0.0000000000e+00
5.1000000000e-01 1.0000000000e-02 0.0000000000e+00
5.2000000000e-01 1.0000000000e-02 0.0000000000e+00
5.3000000000e-01 1.0000000000e-02 0.0000000000e+00
5.4000000000e-01 1.0000000000e-02 0.0000000000e+00
5.5000000000e-01 1.0000000000e-02 0.0000000000e+00
5.6000000000e-01 1.0000000000e-02 0.0000000000e+00
5.7000000000e-01 1.0000000000e-02 0.0000000000e+00
5.8000000000e-01 1.0000000000e-02 0.0000000000e+00
5.9000000000e-01 1.0000000000e-02 0.0000000000e+00
6.0000000000e-01 1.0000000000e-02 0.0000000000e+00
6.1000000000e-01 1.0000000000e-02 0.0000000000e+00
6.2000000000e-01 1.0000000000e-02 0.0000000000e+00
6.3000000000e-01 1.0000000000e-02 0.0000000000e+00
6.4000000000e-01 1.0000000000e-02 0.0000000000e+00
6.5000000000e-01 1.0000000000e-02 0.0000000000e+00
6.6000000000e-01 1.0000000000e-02 0.0000000000e+00
6.7000000000e-01 1.0000000000e-02 0.0000000000e+00
6.8000000000e-01 1.0000000000e-02 0.0000000000e+00
6.9000000000e-01 1.0000000000e-02 0.0000000000e+00
7.0000000000e-01 1.0000000000e-02 0.0000000000e+00
7.1000000000e-01 1.0000000000e-02 0.0000000000e+00
7.2000000000e-01 1.0000000000e-02 0.0000000000e+00
7.3000000000e-01 1.0000000000e-02 0.0000000000e+00
7.4000000000e-01 1.0000000000e-02 0.0000000000e+00
7.5000000000e-01 1.0000000000e-02 0.0000000000e+00
7.6000000000e-01 1.0000000000e-02 0.0000000000e+00
7.7000000000e-01 1.0000000000e-02 0.0000000000e+00
7.8000000000e-01 1.0000000000e-02 0.0000000000e+00
7.9000000000e-01 1.0000000000e-02 0.0000000000e+00
8.0000000000e-01 1.0000000000e-02 0.0000000000e+00
8.1000000000e-01 1.0000000000e-02 0.0000000000e+00
8.2000000000e-01 1.0000000000e-02 0.0000000000e+00
8.3000000000e-01 1.0000000000e-02 0.0000000000e+00
8.4000000000e-01 1.0000000000e-02 0.0000000000e+00
8.5000000000e-01 1.0000000000e-02 0.0000000000e+00
8.6000000000e-01 1.0000000000e-02 0.0000000000e+00
8.7000000000e-01 1.0000000000e-02 0.0000000000e+00
8.8000000000e-01 1.0000000000e-02 0.0000000000e+00
8.9000000000e-01 1.0000000000e-02 0.0000000000e+00
9.0000000000e-01 1.0000000000e-02 0.0000000000e+00
9.1000000000e-01 1.0000000000e-02 0.0000000000e+00
9.2000000000e-01 1.0000000000e-02 0.0000000000e+00
[...]
CELL_DATA 10000

SCALARS massDensity float
LOOKUP_TABLE default
1.2013656350e+00
1.2013763750e+00
1.2013938213e+00
1.2014203393e+00
1.2014556533e+00
1.2014994114e+00
1.2015511935e+00
1.2016105172e+00
1.2016768436e+00
1.2017495840e+00
1.2018281083e+00
1.2019117523e+00
1.2019998273e+00
1.2020916286e+00
1.2021864449e+00
1.2022835661e+00
1.2023822932e+00
1.2024819448e+00
1.2025818656e+00
1.2026814322e+00
1.2027800593e+00
1.2028772045e+00
1.2029723721e+00
1.2030651165e+00
1.2031550439e+00
1.2032418137e+00
1.2033251388e+00
1.2034047846e+00
1.2034805686e+00
1.2035523576e+00
1.2036200657e+00
1.2036836509e+00
1.2037431121e+00
1.2037984850e+00
1.2038498384e+00
1.2038972703e+00
1.2039409035e+00
1.2039808819e+00
1.2040173664e+00
1.2040505316e+00
1.2040805614e+00
1.2041076468e+00
1.2041319821e+00
1.2041537626e+00
1.2041731822e+00
1.2041904314e+00
1.2042056954e+00
1.2042191527e+00
1.2042309740e+00
1.2042413215e+00
1.2042503478e+00
1.2042581959e+00
1.2042649991e+00
1.2042708805e+00
1.2042759533e+00
1.2042803214e+00
1.2042840791e+00
1.2042873121e+00
1.2042900975e+00
1.2042925048e+00
1.2042945958e+00
1.2042964257e+00
1.2042980434e+00
1.2042994918e+00
1.2043008088e+00
1.2043020271e+00
1.2043031752e+00
1.2043042777e+00
1.2043053551e+00
1.2043064249e+00
1.2043075014e+00
1.2043085962e+00
1.2043097181e+00
1.2043108739e+00
1.2043120679e+00
1.2043133026e+00
1.2043145786e+00
1.2043158951e+00
1.2043172493e+00
1.2043186375e+00
1.2043200545e+00
1.2043214939e+00
1.2043229484e+00
1.2043244097e+00
1.2043258684e+00
1.2043273147e+00
1.2043287374e+00
1.2043301245e+00
1.2043314630e+00
1.2043327385e+00
1.2043339345e+00
1.2043350324e+00
1.2043360103e+00
1.2043368420e+00
1.2043374956e+00
1.2043379320e+00
1.2043381034e+00
1.2043379536e+00
1.2043374239e+00
1.2043415068e+00
1.2013763750e+00
1.2013876959e+00
1.2014054176e+00
1.2014321051e+00
1.2014675076e+00
1.2015112915e+00
1.2015630488e+00
1.2016223055e+00
1.2016885282e+00
1.2017611330e+00
1.2018394926e+00
1.2019229463e+00
1.2020108076e+00
1.2021023745e+00
1.2021969376e+00
1.2022937898e+00
1.2023922337e+00
1.2024915908e+00
1.2025912079e+00
1.2026904642e+00
1.2027887765e+00
1.2028856049e+00
1.2029804559e+00
1.2030728862e+00
1.2031625039e+00
1.2032489705e+00
1.2033320004e+00
1.2034113612e+00
1.2034868715e+00
1.2035583995e+00
1.2036258603e+00
1.2036892131e+00
1.2037484573e+00
1.2038036292e+00
1.2038547979e+00
1.2039020616e+00
1.2039455429e+00
1.2039853857e+00
1.2040217504e+00
1.2040548110e+00
1.2040847507e+00
1.2041117597e+00
1.2041360313e+00
1.2041577598e+00
1.2041771381e+00
1.2041943553e+00
1.2042095954e+00
1.2042230357e+00
1.2042348455e+00
1.2042451856e+00
1.2042542074e+00
1.2042620525e+00
1.2042688528e+00
1.2042747301e+00
1.2042797963e+00
1.2042841539e+00
1.2042878961e+00
1.2042911072e+00
1.2042938631e+00
1.2042962320e+00
1.2042982746e+00
1.2043000449e+00
1.2043015905e+00
1.2043029535e+00
1.2043041703e+00
1.2043052731e+00
1.2043062892e+00
1.2043072421e+00
1.2043081519e+00
1.2043090353e+00
1.2043099061e+00
1.2043107754e+00
1.2043116519e+00
1.2043125423e+00
1.2043134512e+00
1.2043143814e+00
1.2043153343e+00
1.2043163098e+00
1.2043173065e+00
1.2043183221e+00
1.2043193530e+00
1.2043203950e+00
1.2043214431e+00
1.2043224915e+00
1.2043235341e+00
1.2043245640e+00
1.2043255738e+00
1.2043265555e+00
1.2043275006e+00
1.2043283996e+00
1.2043292424e+00
1.2043300174e+00
1.2043307118e+00
1.2043313111e+00
1.2043317992e+00
1.2043321590e+00
1.2043323737e+00
1.2043324309e+00
1.2043323334e+00
1.2043372943e+00
1.2013938213e+00
1.2014054176e+00
1.2014231255e+00
1.2014497118e+00
1.2014849374e+00
1.2015284779e+00
1.2015799335e+00
1.2016388361e+00
1.2017046584e+00
1.2017768210e+00
1.2018547020e+00
1.2019376447e+00
1.2020249676e+00
1.2021159728e+00
1.2022099559e+00
1.2023062137e+00
1.2024040537e+00
1.2025028010e+00
1.2026018070e+00
1.2027004543e+00
1.2027981638e+00
1.2028943984e+00
1.2029886682e+00
1.2030805323e+00
1.2031696015e+00
1.2032555391e+00
1.2033380617e+00
1.2034169379e+00
1.2034919877e+00
1.2035630800e+00
1.2036301307e+00
1.2036930987e+00
1.2037519839e+00
1.2038068220e+00
1.2038576820e+00
1.2039046610e+00
1.2039478812e+00
1.2039874852e+00
1.2040236326e+00
1.2040564960e+00
1.2040862578e+00
1.2041131066e+00
1.2041372347e+00
1.2041588350e+00
1.2041780991e+00
1.2041952150e+00
1.2042103654e+00
1.2042237266e+00
1.2042354668e+00
1.2042457459e+00
1.2042547142e+00
1.2042625126e+00
1.2042692722e+00
1.2042751140e+00
1.2042801495e+00
1.2042844804e+00
1.2042881994e+00
1.2042913905e+00
1.2042941292e+00
1.2042964832e+00
1.2042985130e+00
1.2043002723e+00
1.2043018084e+00
1.2043031630e+00
1.2043043726e+00
1.2043054688e+00
1.2043064788e+00
1.2043074259e+00
1.2043083298e+00
1.2043092070e+00
1.2043100710e+00
1.2043109326e+00
1.2043118003e+00
1.2043126804e+00
1.2043135772e+00
1.2043144933e+00
1.2043154298e+00
1.2043163865e+00
1.2043173618e+00
1.2043183532e+00
1.2043193571e+00
1.2043203694e+00
1.2043213852e+00
1.2043223989e+00
1.2043234046e+00
1.2043243958e+00
1.2043253659e+00
1.2043263074e+00
1.2043272128e+00
1.2043280740e+00
1.2043288823e+00
1.2043296285e+00
1.2043303028e+00
1.2043308952e+00
1.2043313958e+00
1.2043317960e+00
1.2043320915e+00
1.2043322865e+00
1.2043324032e+00
1.2043378027e+00
1.2014203393e+00
1.2014321051e+00
1.2014497118e+00
1.2014761004e+00
1.2015110350e+00
1.2015541975e+00
1.2016051939e+00
1.2016635633e+00
1.2017287845e+00
1.2018002850e+00
1.2018774490e+00
1.2019596269e+00
1.2020461436e+00
1.2021363083e+00
1.2022294226e+00
1.2023247906e+00
1.2024217257e+00
1.2025195601e+00
1.2026176503e+00
1.2027153854e+00
1.2028121912e+00
1.2029075363e+00
1.2030009346e+00
1.2030919498e+00
1.2031801960e+00
1.2032653402e+00
1.2033471011e+00
1.2034252499e+00
1.2034996079e+00
1.2035700457e+00
1.2036364794e+00
1.2036988689e+00
1.2037572135e+00
1.2038115490e+00
1.2038619434e+00
1.2039084931e+00
1.2039513190e+00
1.2039905624e+00
1.2040263813e+00
1.2040589467e+00
1.2040884390e+00
1.2041150452e+00
1.2041389557e+00
1.2041603616e+00
1.2041794525e+00
1.2041964148e+00
1.2042114294e+00
1.2042246708e+00
1.2042363058e+00
1.2042464927e+00
1.2042553805e+00
1.2042631088e+00
1.2042698075e+00
1.2042755965e+00
1.2042805863e+00
1.2042848778e+00
1.2042885630e+00
1.2042917251e+00
1.2042944389e+00
1.2042967716e+00
1.2042987833e+00
1.2043005271e+00
1.2043020500e+00
1.2043033933e+00
1.2043045931e+00
1.2043056807e+00
1.2043066831e+00
1.2043076231e+00
1.2043085201e+00
1.2043093904e+00
1.2043102471e+00
1.2043111007e+00
1.2043119594e+00
1.2043128291e+00
1.2043137139e+00
1.2043146163e+00
1.2043155369e+00
1.2043164753e+00
1.2043174299e+00
1.2043183980e+00
1.2043193760e+00
1.2043203598e+00
1.2043213447e+00
1.2043223253e+00
1.2043232961e+00
1.2043242511e+00
1.2043251841e+00
1.2043260888e+00
1.2043269584e+00
1.2043277863e+00
1.2043285654e+00
1.2043292886e+00
1.2043299490e+00
1.2043305402e+00
1.2043310568e+00
1.2043314962e+00
1.2043318601e+00
1.2043321590e+00
1.2043324167e+00
1.2043380717e+00
1.2014556533e+00
1.2014675076e+00
1.2014849374e+00
1.2015110350e+00
1.2015455664e+00
1.2015882171e+00
1.2016385998e+00
1.2016962598e+00
1.2017606840e+00
1.2018313073e+00
1.2019075228e+00
1.2019886887e+00
1.2020741391e+00
1.2021631915e+00
1.2022551570e+00
1.2023493476e+00
1.2024450861e+00
1.2025417121e+00
1.2026385911e+00
1.2027351190e+00
1.2028307294e+00
1.2029248968e+00
1.2030171419e+00
1.2031070333e+00
1.2031941904e+00
1.2032782837e+00
1.2033590362e+00
1.2034362212e+00
1.2035096630e+00
1.2035792331e+00
1.2036448493e+00
1.2037064714e+00
1.2037640992e+00
1.2038177678e+00
1.2038675444e+00
1.2039135241e+00
1.2039558264e+00
1.2039945906e+00
1.2040299728e+00
1.2040621417e+00
1.2040912757e+00
1.2041175591e+00
1.2041411799e+00
1.2041623269e+00
1.2041811874e+00
1.2041979451e+00
1.2042127788e+00
1.2042258609e+00
1.2042373560e+00
1.2042474203e+00
1.2042562013e+00
1.2042638366e+00
1.2042704546e+00
1.2042761739e+00
1.2042811036e+00
1.2042853435e+00
1.2042889844e+00
1.2042921086e+00
1.2042947900e+00
1.2042970953e+00
1.2042990836e+00
1.2043008076e+00
1.2043023138e+00
1.2043036429e+00
1.2043048306e+00
1.2043059077e+00
1.2043069008e+00
1.2043078325e+00
1.2043087218e+00
1.2043095845e+00
1.2043104333e+00
1.2043112786e+00
1.2043121282e+00
1.2043129876e+00
1.2043138607e+00
1.2043147495e+00
1.2043156547e+00
1.2043165755e+00
1.2043175100e+00
1.2043184557e+00
1.2043194089e+00
1.2043203655e+00
1.2043213209e+00
1.2043222701e+00
1.2043232078e+00
1.2043241287e+00
1.2043250273e+00
1.2043258979e+00
1.2043267349e+00
1.2043275329e+00
1.2043282864e+00
1.2043289903e+00
1.2043296400e+00
1.2043302317e+00
1.2043307632e+00
1.2043312352e+00
1.2043316521e+00
1.2043320250e+00
1.2043323738e+00
1.2043381706e+00
1.2014994114e+00
1.2015112915e+00
1.2015284779e+00
1.2015541975e+00
1.2015882171e+00
1.2016302271e+00
1.2016798457e+00
1.2017366265e+00
1.2018000640e+00
1.2018696032e+00
1.2019446463e+00
1.2020245625e+00
1.2021086958e+00
1.2021963751e+00
1.2022869215e+00
1.2023796587e+00
1.2024739191e+00
1.2025690535e+00
1.2026644364e+00
1.2027594739e+00
1.2028536075e+00
1.2029463209e+00
1.2030371413e+00
1.2031256448e+00
1.2032114561e+00
1.2032942516e+00
1.2033737577e+00
1.2034497522e+00
1.2035220613e+00
1.2035905592e+00
1.2036551644e+00
1.2037158380e+00
1.2037725791e+00
1.2038254228e+00
1.2038744349e+00
1.2039197093e+00
1.2039613633e+00
1.2039995342e+00
1.2040343755e+00
1.2040660534e+00
1.2040947432e+00
1.2041206266e+00
1.2041438884e+00
1.2041647145e+00
1.2041832890e+00
1.2041997931e+00
1.2042144026e+00
1.2042272872e+00
1.2042386088e+00
1.2042485214e+00
1.2042571701e+00
1.2042646904e+00
1.2042712088e+00
1.2042768421e+00
1.2042816977e+00
1.2042858740e+00
1.2042894605e+00
1.2042925383e+00
1.2042951803e+00
1.2042974521e+00
1.2042994120e+00
1.2043011121e+00
1.2043025981e+00
1.2043039102e+00
1.2043050835e+00
1.2043061483e+00
1.2043071307e+00
1.2043080529e+00
1.2043089335e+00
1.2043097880e+00
1.2043106286e+00
1.2043114654e+00
1.2043123057e+00
1.2043131549e+00
1.2043140164e+00
1.2043148921e+00
1.2043157823e+00
1.2043166860e+00
1.2043176013e+00
1.2043185255e+00
1.2043194548e+00
1.2043203854e+00
1.2043213127e+00
1.2043222321e+00
1.2043231386e+00
1.2043240274e+00
1.2043248936e+00
1.2043257324e+00
1.2043265393e+00
1.2043273099e+00
1.2043280402e+00
1.2043287267e+00
1.2043293666e+00
1.2043299582e+00
1.2043305012e+00
1.2043309977e+00
1.2043314531e+00
1.2043318769e+00
1.2043322840e+00
1.2043381519e+00
1.2015511935e+00
1.2015630488e+00
1.2015799335e+00
1.2016051939e+00
1.2016385998e+00
1.2016798457e+00
1.2017285574e+00
1.2017842960e+00
1.2018465664e+00
1.2019148235e+00
1.2019884815e+00
1.2020669209e+00
1.2021494987e+00
1.2022355557e+00
1.2023244267e+00
1.2024154468e+00
1.2025079620e+00
1.2026013343e+00
1.2026949507e+00
1.2027882275e+00
1.2028806175e+00
1.2029716130e+00
1.2030607511e+00
1.2031476148e+00
1.2032318368e+00
1.2033130986e+00
1.2033911327e+00
1.2034657201e+00
1.2035366911e+00
1.2036039216e+00
1.2036673322e+00
1.2037268843e+00
1.2037825775e+00
1.2038344456e+00
1.2038825538e+00
1.2039269938e+00
1.2039678809e+00
1.2040053498e+00
1.2040395511e+00
1.2040706477e+00
1.2040988118e+00
1.2041242214e+00
1.2041470581e+00
1.2041675040e+00
1.2041857400e+00
1.2042019436e+00
1.2042162875e+00
1.2042289380e+00
1.2042400543e+00
1.2042497873e+00
1.2042582793e+00
1.2042656636e+00
1.2042720643e+00
1.2042775959e+00
1.2042823641e+00
1.2042864655e+00
1.2042899880e+00
1.2042930111e+00
1.2042956068e+00
1.2042978394e+00
1.2042997663e+00
1.2043014385e+00
1.2043029011e+00
1.2043041934e+00
1.2043053501e+00
1.2043064009e+00
1.2043073712e+00
1.2043082829e+00
1.2043091540e+00
1.2043099996e+00
1.2043108317e+00
1.2043116596e+00
1.2043124907e+00
1.2043133297e+00
1.2043141799e+00
1.2043150428e+00
1.2043159185e+00
1.2043168058e+00
1.2043177027e+00
1.2043186062e+00
1.2043195128e+00
1.2043204185e+00
1.2043213191e+00
1.2043222100e+00
1.2043230868e+00
1.2043239452e+00
1.2043247809e+00
1.2043255898e+00
1.2043263684e+00
1.2043271134e+00
1.2043278219e+00
1.2043284918e+00
1.2043291216e+00
1.2043297111e+00
1.2043302611e+00
1.2043307744e+00
1.2043312561e+00
1.2043317139e+00
1.2043321580e+00
1.2043380523e+00
1.2016105172e+00
1.2016223055e+00
1.2016388361e+00
1.2016635633e+00
1.2016962598e+00
1.2017366265e+00
1.2017842960e+00
1.2018388395e+00
1.2018997721e+00
1.2019665611e+00
1.2020386329e+00
1.2021153823e+00
1.2021961795e+00
1.2022803806e+00
1.2023673337e+00
1.2024563896e+00
1.2025469075e+00
1.2026382640e+00
1.2027298586e+00
1.2028211212e+00
1.2029115155e+00
1.2030005458e+00
1.2030877583e+00
1.2031727461e+00
1.2032551489e+00
1.2033346560e+00
1.2034110048e+00
1.2034839822e+00
1.2035534212e+00
1.2036192012e+00
1.2036812440e+00
1.2037395122e+00
1.2037940052e+00
1.2038447564e+00
1.2038918292e+00
1.2039353135e+00
1.2039753220e+00
1.2040119866e+00
1.2040454543e+00
1.2040758848e+00
1.2041034462e+00
1.2041283127e+00
1.2041506619e+00
1.2041706719e+00
1.2041885196e+00
1.2042043786e+00
1.2042184178e+00
1.2042307999e+00
1.2042416807e+00
1.2042512077e+00
1.2042595202e+00
1.2042667486e+00
1.2042730144e+00
1.2042784297e+00
1.2042830979e+00
1.2042871136e+00
1.2042905629e+00
1.2042935238e+00
1.2042960667e+00
1.2042982547e+00
1.2043001439e+00
1.2043017845e+00
1.2043032206e+00
1.2043044908e+00
1.2043056288e+00
1.2043066638e+00
1.2043076208e+00
1.2043085210e+00
1.2043093818e+00
1.2043102180e+00
1.2043110411e+00
1.2043118602e+00
1.2043126819e+00
1.2043135109e+00
1.2043143500e+00
1.2043152005e+00
1.2043160621e+00
1.2043169337e+00
1.2043178128e+00
1.2043186966e+00
1.2043195814e+00
1.2043204634e+00
1.2043213384e+00
1.2043222023e+00
1.2043230509e+00
1.2043238803e+00
1.2043246869e+00
1.2043254675e+00
1.2043262192e+00
1.2043269396e+00
1.2043276270e+00
1.2043282803e+00
1.2043288991e+00
1.2043294841e+00
1.2043300367e+00
1.2043305601e+00
1.2043310585e+00
1.2043315379e+00
1.2043320052e+00
1.2043378970e+00
1.2016768436e+00
1.2016885282e+00
1.2017046584e+00
1.2017287845e+00
1.2017606840e+00
1.2018000640e+00
1.2018465664e+00
1.2018997721e+00
1.2019592086e+00
1.2020243559e+00
1.2020946552e+00
1.2021695155e+00
1.2022483236e+00
1.2023304505e+00
1.2024152615e+00
1.2025021225e+00
1.2025904095e+00
1.2026795136e+00
1.2027688501e+00
1.2028578620e+00
1.2029460275e+00
1.2030328618e+00
1.2031179237e+00
1.2032008152e+00
1.2032811860e+00
1.2033587322e+00
1.2034331986e+00
1.2035043765e+00
1.2035721041e+00
1.2036362629e+00
1.2036967774e+00
1.2037536105e+00
1.2038067623e+00
1.2038562647e+00
1.2039021801e+00
1.2039445959e+00
1.2039836221e+00
1.2040193871e+00
1.2040520345e+00
1.2040817197e+00
1.2041086069e+00
1.2041328658e+00
1.2041546695e+00
1.2041741916e+00
1.2041916047e+00
1.2042070780e+00
1.2042207762e+00
1.2042328579e+00
1.2042434749e+00
1.2042527714e+00
1.2042608830e+00
1.2042679370e+00
1.2042740519e+00
1.2042793371e+00
1.2042838935e+00
1.2042878135e+00
1.2042911811e+00
1.2042940726e+00
1.2042965567e+00
1.2042986949e+00
1.2043005424e+00
1.2043021479e+00
1.2043035546e+00
1.2043048002e+00
1.2043059177e+00
1.2043069354e+00
1.2043078779e+00
1.2043087655e+00
1.2043096155e+00
1.2043104418e+00
1.2043112556e+00
1.2043120655e+00
1.2043128779e+00
1.2043136970e+00
1.2043145253e+00
1.2043153638e+00
1.2043162119e+00
1.2043170683e+00
1.2043179304e+00
1.2043187953e+00
1.2043196593e+00
1.2043205186e+00
1.2043213692e+00
1.2043222072e+00
1.2043230288e+00
1.2043238306e+00
1.2043246095e+00
1.2043253628e+00
1.2043260886e+00
1.2043267852e+00
1.2043274518e+00
1.2043280881e+00
1.2043286945e+00
1.2043292725e+00
1.2043298238e+00
1.2043303516e+00
1.2043308595e+00
1.2043313518e+00
1.2043318331e+00
1.2043377037e+00
1.2017495840e+00
1.2017611330e+00
1.2017768210e+00
1.2018002850e+00
1.2018313073e+00
1.2018696032e+00
1.2019148235e+00
1.2019665611e+00
1.2020243559e+00
1.2020877029e+00
1.2021560580e+00
1.2022288475e+00
1.2023054744e+00
1.2023853280e+00
1.2024677903e+00
1.2025522460e+00
1.2026380871e+00
1.2027247229e+00
1.2028115838e+00
1.2028981294e+00
1.2029838512e+00
1.2030682792e+00
1.2031509832e+00
1.2032315775e+00
1.2033097204e+00
1.2033851176e+00
1.2034575202e+00
1.2035267260e+00
1.2035925770e+00
1.2036549588e+00
1.2037137973e+00
1.2037690573e+00
1.2038207381e+00
1.2038688715e+00
1.2039135174e+00
1.2039547613e+00
1.2039927099e+00
1.2040274882e+00
1.2040592355e+00
1.2040881032e+00
1.2041142504e+00
1.2041378424e+00
1.2041590473e+00
1.2041780340e+00
1.2041949699e+00
1.2042100198e+00
1.2042233435e+00
1.2042350953e+00
1.2042454229e+00
1.2042544662e+00
1.2042623572e+00
1.2042692198e+00
1.2042751690e+00
1.2042803114e+00
1.2042847452e+00
1.2042885602e+00
1.2042918384e+00
1.2042946538e+00
1.2042970734e+00
1.2042991573e+00
1.2043009591e+00
1.2043025262e+00
1.2043039008e+00
1.2043051197e+00
1.2043062148e+00
1.2043072140e+00
1.2043081407e+00
1.2043090150e+00
1.2043098534e+00
1.2043106693e+00
1.2043114736e+00
1.2043122743e+00
1.2043130774e+00
1.2043138867e+00
1.2043147045e+00
1.2043155313e+00
1.2043163664e+00
1.2043172082e+00
1.2043180541e+00
1.2043189008e+00
1.2043197449e+00
1.2043205825e+00
1.2043214097e+00
1.2043222229e+00
1.2043230187e+00
1.2043237940e+00
1.2043245462e+00
1.2043252732e+00
1.2043259738e+00
1.2043266470e+00
1.2043272928e+00
1.2043279115e+00
1.2043285043e+00
1.2043290729e+00
1.2043296197e+00
1.2043301474e+00
1.2043306592e+00
1.2043311583e+00
1.2043316476e+00
1.2043374846e+00
1.2018281083e+00
1.2018394926e+00
1.2018547020e+00
1.2018774490e+00
1.2019075228e+00
1.2019446463e+00
1.2019884815e+00
1.2020386329e+00
1.2020946552e+00
1.2021560580e+00
1.2022223148e+00
1.2022928687e+00
1.2023671419e+00
1.2024445416e+00
1.2025244699e+00
1.2026063292e+00
1.2026895316e+00
1.2027735033e+00
1.2028576935e+00
1.2029415771e+00
1.2030246627e+00
1.2031064936e+00
1.2031866539e+00
1.2032647688e+00
1.2033405083e+00
1.2034135860e+00
1.2034837619e+00
1.2035508391e+00
1.2036146653e+00
1.2036751290e+00
1.2037321591e+00
1.2037857209e+00
1.2038358142e+00
1.2038824694e+00
1.2039257452e+00
1.2039657238e+00
1.2040025091e+00
1.2040362217e+00
1.2040669972e+00
1.2040949817e+00
1.2041203299e+00
1.2041432015e+00
1.2041637595e+00
1.2041821676e+00
1.2041985880e+00
1.2042131802e+00
1.2042260992e+00
1.2042374946e+00
1.2042475092e+00
1.2042562789e+00
1.2042639316e+00
1.2042705872e+00
1.2042763574e+00
1.2042813455e+00
1.2042856469e+00
1.2042893485e+00
1.2042925300e+00
1.2042952633e+00
1.2042976135e+00
1.2042996387e+00
1.2043013912e+00
1.2043029170e+00
1.2043042572e+00
1.2043054473e+00
1.2043065185e+00
1.2043074977e+00
1.2043084077e+00
1.2043092678e+00
1.2043100940e+00
1.2043108993e+00
1.2043116937e+00
1.2043124851e+00
1.2043132789e+00
1.2043140786e+00
1.2043148861e+00
1.2043157016e+00
1.2043165242e+00
1.2043173520e+00
1.2043181823e+00
1.2043190117e+00
1.2043198367e+00
1.2043206534e+00
1.2043214583e+00
1.2043222477e+00
1.2043230187e+00
1.2043237684e+00
1.2043244948e+00
1.2043251963e+00
1.2043258723e+00
1.2043265224e+00
1.2043271471e+00
1.2043277477e+00
1.2043283256e+00
1.2043288831e+00
1.2043294225e+00
1.2043299468e+00
1.2043304585e+00
1.2043309601e+00
1.2043314534e+00
1.2043372487e+00
1.2019117523e+00
1.2019229463e+00
1.2019376447e+00
1.2019596269e+00
1.2019886887e+00
1.2020245625e+00
1.2020669209e+00
1.2021153823e+00
1.2021695155e+00
1.2022288475e+00
1.2022928687e+00
1.2023610418e+00
1.2024328076e+00
1.2025075945e+00
1.2025848236e+00
1.2026639186e+00
1.2027443103e+00
1.2028254457e+00
1.2029067912e+00
1.2029878410e+00
1.2030681188e+00
1.2031471847e+00
1.2032246359e+00
1.2033001112e+00
1.2033732908e+00
1.2034438992e+00
1.2035117033e+00
1.2035765142e+00
1.2036381838e+00
1.2036966052e+00
1.2037517091e+00
1.2038034624e+00
1.2038518647e+00
1.2038969458e+00
1.2039387618e+00
1.2039773928e+00
1.2040129385e+00
1.2040455160e+00
1.2040752558e+00
1.2041022993e+00
1.2041267958e+00
1.2041488996e+00
1.2041687681e+00
1.2041865594e+00
1.2042024301e+00
1.2042165344e+00
1.2042290219e+00
1.2042400371e+00
1.2042497180e+00
1.2042581959e+00
1.2042655943e+00
1.2042720292e+00
1.2042776085e+00
1.2042824321e+00
1.2042865922e+00
1.2042901730e+00
1.2042932514e+00
1.2042958972e+00
1.2042981733e+00
1.2043001361e+00
1.2043018360e+00
1.2043033180e+00
1.2043046214e+00
1.2043057810e+00
1.2043068268e+00
1.2043077848e+00
1.2043086772e+00
1.2043095225e+00
1.2043103359e+00
1.2043111301e+00
1.2043119145e+00
1.2043126964e+00