# vtk DataFile Version 2.0
Blank
ASCII
DATASET STRUCTURED_GRID
DIMENSIONS 101 101 2
POINTS 20402 float
0.0000000000e+00 0.0000000000e+00 0.0000000000e+00
1.0000000000e-02 0.0000000000e+00 0.0000000000e+00
2.0000000000e-02 0.0000000000e+00 0.0000000000e+00
3.0000000000e-02 0.0000000000e+00 0.0000000000e+00
4.0000000000e-02 0.0000000000e+00 0.0000000000e+00
5.0000000000e-02 0.0000000000e+00 0.0000000000e+00
6.0000000000e-02 0.0000000000e+00 0.0000000000e+00
7.0000000000e-02 0.0000000000e+00 0.0000000000e+00
8.0000000000e-02 0.0000000000e+00 0.0000000000e+00
9.0000000000e-02 0.0000000000e+00 0.0000000000e+00
1.0000000000e-01 0.0000000000e+00 0.0000000000e+00
1.1000000000e-01 0.0000000000e+00 0.0000000000e+00
1.2000000000e-01 0.0000000000e+00 0.0000000000e+00
1.3000000000e-01 0.0000000000e+00 0.0000000000e+00
1.4000000000e-01 0.0000000000e+00 0.0000000000e+00
1.5000000000e-01 0.0000000000e+00 0.0000000000e+00
1.6000000000e-01 0.0000000000e+00 0.0000000000e+00
1.7000000000e-01 0.0000000000e+00 0.0000000000e+00
1.8000000000e-01 0.0000000000e+00 0.0000000000e+00
1.9000000000e-01 0.0000000000e+00 0.0000000000e+00
2.0000000000e-01 0.0000000000e+00 0.0000000000e+00
2.1000000000e-01 0.0000000000e+00 0.0000000000e+00
2.2000000000e-01 0.0000000000e+00 0.0000000000e+00
2.3000000000e-01 0.0000000000e+00 0.0000000000e+00
2.4000000000e-01 0.0000000000e+00 0.0000000000e+00
2.5000000000e-01 0.0000000000e+00 0.0000000000e+00
2.6000000000e-01 0.0000000000e+00 0.0000000000e+00
2.7000000000e-01 0.0000000000e+00 0.0000000000e+00
2.8000000000e-01 0.0000000000e+00 0.0000000000e+00
2.9000000000e-01 0.0000000000e+00 0.0000000000e+00
3.0000000000e-01 0.0000000000e+00 0.0000000000e+00
3.1000000000e-01 0.0000000000e+00 0.0000000000e+00
3.2000000000e-01 0.0000000000e+00 0.0000000000e+00
3.3000000000e-01 0.0000000000e+00 0.0000000000e+00
3.4000000000e-01 0.0000000000e+00 0.0000000000e+00
3.5000000000e-01 0.0000000000e+00 0.0000000000e+00
3.6000000000e-01 0.0000000000e+00 0.0000000000e+00
3.7000000000e-01 0.0000000000e+00 0.0000000000e+00
3.8000000000e-01 0.0000000000e+00 0.0000000000e+00
3.9000000000e-01 0.0000000000e+00 0.0000000000e+00
4.0000000000e-01 0.0000000000e+00 0.0000000000e+00
4.1000000000e-01 0.0000000000e+00 0.0000000000e+00
4.2000000000e-01 0.0000000000e+00 0.0000000000e+00
4.3000000000e-01 0.0000000000e+00 0.0000000000e+00
4.4000000000e-01 0.0000000000e+00 0.0000000000e+00
4.5000000000e-01 0.0000000000e+00 0.0000000000e+00
4.6000000000e-01 0.0000000000e+00 0.0000000000e+00
4.7000000000e-01 0.0000000000e+00 0.0000000000e+00
4.8000000000e-01 0.0000000000e+00 0.0000000000e+00
4.9000000000e-01 0.0000000000e+00 0.0000000000e+00
5.0000000000e-01 0.0000000000e+00 0.0000000000e+00
5.1000000000e-01 0.0000000000e+00 0.0000000000e+00
5.2000000000e-01 0.0000000000e+00 0.0000000000e+00
5.3000000000e-01 0.0000000000e+00 0.0000000000e+00
5.4000000000e-01 0.0000000000e+00 0.0000000000e+00
5.5000000000e-01 0.0000000000e+00 0.0000000000e+00
5.6000000000e-01 0.0000000000e+00 0.0000000000e+00
5.7000000000e-01 0.0000000000e+00 0.0000000000e+00
5.8000000000e-01 0.0000000000e+00 0.0000000000e+00
5.9000000000e-01 0.0000000000e+00 0.0000000000e+00
6.0000000000e-01 0.0000000000e+00 0.0000000000e+00
6.1000000000e-01 0.0000000000e+00 0.0000000000e+00
6.2000000000e-01 0.0000000000e+00 0.0000000000e+00
6.3000000000e-01 0.0000000000e+00 0.0000000000e+00
6.4000000000e-01 0.0000000000e+00 0.0000000000e+00
6.5000000000e-01 0.0000000000e+00 0.0000000000e+00
6.6000000000e-01 0.0000000000e+00 0.0000000000e+00
6.7000000000e-01 0.0000000000e+00 0.0000000000e+00
6.8000000000e-01 0.0000000000e+00 0.0000000000e+00
6.9000000000e-01 0.0000000000e+00 0.0000000000e+00
7.0000000000e-01 0.0000000000e+00 0.0000000000e+00
7.1000000000e-01 0.0000000000e+00 0.0000000000e+00
7.2000000000e-01 0.0000000000e+00 0.0000000000e+00
7.3000000000e-01 0.0000000000e+00 0.0000000000e+00
7.4000000000e-01 0.0000000000e+00 0.0000000000e+00
7.5000000000e-01 0.0000000000e+00 0.0000000000e+00
7.6000000000e-01 0.0000000000e+00 0.0000000000e+00
7.7000000000e-01 0.0000000000e+00 0.0000000000e+00
7.8000000000e-01 0.0000000000e+00 0.0000000000e+00
7.9000000000e-01 0.0000000000e+00 0.0000000000e+00
8.0000000000e-01 0.0000000000e+00 0.0000000000e+00
8.1000000000e-01 0.0000000000e+00 0.0000000000e+00
8.2000000000e-01 0.0000000000e+00 0.0000000000e+00
8.3000000000e-01 0.0000000000e+00 0.0000000000e+00
8.4000000000e-01 0.0000000000e+00 0.0000000000e+00
8.5000000000e-01 0.0000000000e+00 0.0000000000e+00
8.6000000000e-01 0.0000000000e+00 0.0000000000e+00
8.7000000000e-01 0.0000000000e+00 0.0000000000e+00
8.8000000000e-01 0.0000000000e+00 0.0000000000e+00
8.9000000000e-01 0.0000000000e+00 0.0000000000e+00
9.0000000000e-01 0.0000000000e+00 0.0000000000e+00
9.1000000000e-01 0.0000000000e+00 0.0000000000e+00
9.2000000000e-01 0.0000000000e+00 0.0000000000e+00
9.3000000000e-01 0.0000000000e+00 0.0000000000e+00
9.4000000000e-01 0.0000000000e+00 0.0000000000e+00
9.5000000000e-01 0.0000000000e+00 0.0000000000e+00
9.6000000000e-01 0.0000000000e+00 0.0000000000e+00
9.7000000000e-01 0.0000000000e+00 0.0000000000e+00
9.8000000000e-01 0.0000000000e+00 0.0000000000e+00
9.9000000000e-01 0.0000000000e+00 0.0000000000e+00
1.0000000000e+00 0.0000000000e+00 0.0000000000e+00
0.0000000000e+00 1.0000000000e-02 0.0000000000e+00
1.0000000000e-02 1.0000000000e-02 0.0000000000e+00
2.0000000000e-02 1.0000000000e-02 0.0000000000e+00
3.0000000000e-02 1.0000000000e-02 0.0000000000e+00
4.0000000000e-02 1.0000000000e-02 0.0000000000e+00
5.0000000000e-02 1.0000000000e-02 0.0000000000e+00
6.0000000000e-02 1.0000000000e-02 0.0000000000e+00
7.0000000000e-02 1.0000000000e-02 0.0000000000e+00
8.0000000000e-02 1.0000000000e-02 0.0000000000e+00
9.0000000000e-02 1.0000000000e-02 0.0000000000e+00
1.0000000000e-01 1.0000000000e-02 0.0000000000e+00
1.1000000000e-01 1.0000000000e-02 0.0000000000e+00
1.2000000000e-01 1.0000000000e-02 0.0000000000e+00
1.3000000000e-01 1.0000000000e-02 0.0000000000e+00
1.4000000000e-01 1.0000000000e-02 0.0000000000e+00
1.5000000000e-01 1.0000000000e-02 0.0000000000e+00
1.6000000000e-01 1.0000000000e-02 0.0000000000e+00
1.7000000000e-01 1.0000000000e-02 0.0000000000e+00
1.8000000000e-01 1.0000000000e-02 0.0000000000e+00
1.9000000000e-01 1.0000000000e-02 0.0000000000e+00
2.0000000000e-01 1.0000000000e-02 0.0000000000e+00
2.1000000000e-01 1.0000000000e-02 0.0000000000e+00
2.2000000000e-01 1.0000000000e-02 0.0000000000e+00
2.3000000000e-01 1.0000000000e-02 0.0000000000e+00
2.4000000000e-01 1.0000000000e-02 0.0000000000e+00
2.5000000000e-01 1.0000000000e-02 0.0000000000e+00
2.6000000000e-01 1.0000000000e-02 0.0000000000e+00
2.7000000000e-01 1.0000000000e-02 0.0000000000e+00
2.8000000000e-01 1.0000000000e-02 0.0000000000e+00
2.9000000000e-01 1.0000000000e-02 0.0000000000e+00
3.0000000000e-01 1.0000000000e-02 0.0000000000e+00
3.1000000000e-01 1.0000000000e-02 0.0000000000e+00
3.2000000000e-01 1.0000000000e-02 0.0000000000e+00
3.3000000000e-01 1.0000000000e-02 0.0000000000e+00
3.4000000000e-01 1.0000000000e-02 0.0000000000e+00
3.5000000000e-01 1.0000000000e-02 0.0000000000e+00
3.6000000000e-01 1.0000000000e-02 0.0000000000e+00
3.7000000000e-01 1.0000000000e-02 0.0000000000e+00
3.8000000000e-01 1.0000000000e-02 0.0000000000e+00
3.9000000000e-01 1.0000000000e-02 0.0000000000e+00
4.0000000000e-01 1.0000000000e-02 0.0000000000e+00
4.1000000000e-01 1.0000000000e-02 0.0000000000e+00
4.2000000000e-01 1.0000000000e-02 0.0000000000e+00
4.3000000000e-01 1.0000000000e-02 0.0000000000e+00
4.4000000000e-01 1.0000000000e-02 0.0000000000e+00
4.5000000000e-01 1.0000000000e-02 0.0000000000e+00
4.6000000000e-01 1.0000000000e-02 0.0000000000e+00
4.7000000000e-01 1.0000000000e-02 0.0000000000e+00
4.8000000000e-01 1.0000000000e-02 0.0000000000e+00
4.9000000000e-01 1.0000000000e-02 0.0000000000e+00
5.0000000000e-01 1.0000000000e-02 0.0000000000e+00
5.1000000000e-01 1.0000000000e-02 0.0000000000e+00
5.2000000000e-01 1.0000000000e-02 0.0000000000e+00
5.3000000000e-01 1.0000000000e-02 0.0000000000e+00
5.4000000000e-01 1.0000000000e-02 0.0000000000e+00
5.5000000000e-01 1.0000000000e-02 0.0000000000e+00
5.6000000000e-01 1.0000000000e-02 0.0000000000e+00
5.7000000000e-01 1.0000000000e-02 0.0000000000e+00
5.8000000000e-01 1.0000000000e-02 0.0000000000e+00
5.9000000000e-01 1.0000000000e-02 0.0000000000e+00
6.0000000000e-01 1.0000000000e-02 0.0000000000e+00
6.1000000000e-01 1.0000000000e-02 0.0000000000e+00
6.2000000000e-01 1.0000000000e-02 0.0000000000e+00
6.3000000000e-01 1.0000000000e-02 0.0000000000e+00
6.4000000000e-01 1.0000000000e-02 0.0000000000e+00
6.5000000000e-01 1.0000000000e-02 0.0000000000e+00
6.6000000000e-01 1.0000000000e-02 0.0000000000e+00
6.7000000000e-01 1.0000000000e-02 0.0000000000e+00
6.8000000000e-01 1.0000000000e-02 0.0000000000e+00
6.9000000000e-01 1.0000000000e-02 0.0000000000e+00
7.0000000000e-01 1.0000000000e-02 0.0000000000e+00
7.1000000000e-01 1.0000000000e-02 0.0000000000e+00
7.2000000000e-01 1.0000000000e-02 0.0000000000e+00
7.3000000000e-01 1.0000000000e-02 0.0000000000e+00
7.4000000000e-01 1.0000000000e-02 0.0000000000e+00
7.5000000000e-01 1.0000000000e-02 0.0000000000e+00
7.6000000000e-01 1.0000000000e-02 0.0000000000e+00
7.7000000000e-01 1.0000000000e-02 0.0000000000e+00
7.8000000000e-01 1.0000000000e-02 0.0000000000e+00
7.9000000000e-01 1.0000000000e-02 0.0000000000e+00
8.0000000000e-01 1.0000000000e-02 0.0000000000e+00
8.1000000000e-01 1.0000000000e-02 0.0000000000e+00
8.2000000000e-01 1.0000000000e-02 0.0000000000e+00
8.3000000000e-01 1.0000000000e-02 0.0000000000e+00
8.4000000000e-01 1.0000000000e-02 0.0000000000e+00
8.5000000000e-01 1.0000000000e-02 0.0000000000e+00
8.6000000000e-01 1.0000000000e-02 0.0000000000e+00
8.7000000000e-01 1.0000000000e-02 0.0000000000e+00
8.8000000000e-01 1.0000000000e-02 0.0000000000e+00
8.9000000000e-01 1.0000000000e-02 0.0000000000e+00
9.0000000000e-01 1.0000000000e-02 0.0000000000e+00
9.1000000000e-01 1.0000000000e-02 0.0000000000e+00
9.2000000000e-01 1.0000000000e-02 0.0000000000e+00
[...]
CELL_DATA 10000

SCALARS massDensity float
LOOKUP_TABLE default
1.2002245853e+00
1.2002020061e+00
1.2002475220e+00
1.2003091217e+00
1.2003866604e+00
1.2004796551e+00
1.2005872850e+00
1.2007084372e+00
1.2008417664e+00
1.2009857475e+00
1.2011387297e+00
1.2012989810e+00
1.2014647351e+00
1.2016342281e+00
1.2018057374e+00
1.2019776112e+00
1.2021482979e+00
1.2023163669e+00
1.2024805280e+00
1.2026396433e+00
1.2027927368e+00
1.2029389969e+00
1.2030777783e+00
1.2032085958e+00
1.2033311196e+00
1.2034451635e+00
1.2035506751e+00
1.2036477204e+00
1.2037364708e+00
1.2038171867e+00
1.2038902035e+00
1.2039559154e+00
1.2040147621e+00
1.2040672145e+00
1.2041137633e+00
1.2041549068e+00
1.2041911425e+00
1.2042229581e+00
1.2042508247e+00
1.2042751916e+00
1.2042964823e+00
1.2043150909e+00
1.2043313812e+00
1.2043456847e+00
1.2043583014e+00
1.2043694995e+00
1.2043795171e+00
1.2043885635e+00
1.2043968207e+00
1.2044044456e+00
1.2044115723e+00
1.2044183135e+00
1.2044247632e+00
1.2044309986e+00
1.2044370817e+00
1.2044430615e+00
1.2044489753e+00
1.2044548502e+00
1.2044607044e+00
1.2044665489e+00
1.2044723877e+00
1.2044782192e+00
1.2044840368e+00
1.2044898299e+00
1.2044955841e+00
1.2045012820e+00
1.2045069031e+00
1.2045124254e+00
1.2045178242e+00
1.2045230738e+00
1.2045281467e+00
1.2045330148e+00
1.2045376489e+00
1.2045420198e+00
1.2045460976e+00
1.2045498528e+00
1.2045532557e+00
1.2045562779e+00
1.2045588910e+00
1.2045610680e+00
1.2045627829e+00
1.2045640112e+00
1.2045647295e+00
1.2045649162e+00
1.2045645506e+00
1.2045636135e+00
1.2045620861e+00
1.2045599496e+00
1.2045571839e+00
1.2045537662e+00
1.2045496676e+00
1.2045448502e+00
1.2045392610e+00
1.2045328247e+00
1.2045254336e+00
1.2045169359e+00
1.2045071258e+00
1.2044957465e+00
1.2044825423e+00
1.2045026977e+00
1.2002020061e+00
1.2001702220e+00
1.2002110478e+00
1.2002699734e+00
1.2003461820e+00
1.2004387436e+00
1.2005465425e+00
1.2006682733e+00
1.2008024582e+00
1.2009474823e+00
1.2011016274e+00
1.2012631147e+00
1.2014301389e+00
1.2016009087e+00
1.2017736767e+00
1.2019467740e+00
1.2021186322e+00
1.2022878096e+00
1.2024530049e+00
1.2026130737e+00
1.2027670330e+00
1.2029140685e+00
1.2030535309e+00
1.2031849352e+00
1.2033079507e+00
1.2034223932e+00
1.2035282111e+00
1.2036254738e+00
1.2037143546e+00
1.2037951177e+00
1.2038681009e+00
1.2039337021e+00
1.2039923635e+00
1.2040445591e+00
1.2040907815e+00
1.2041315318e+00
1.2041673091e+00
1.2041986028e+00
1.2042258855e+00
1.2042496080e+00
1.2042701947e+00
1.2042880412e+00
1.2043035120e+00
1.2043169402e+00
1.2043286267e+00
1.2043388416e+00
1.2043478244e+00
1.2043557863e+00
1.2043629116e+00
1.2043693596e+00
1.2043752670e+00
1.2043807499e+00
1.2043859056e+00
1.2043908151e+00
1.2043955448e+00
1.2044001480e+00
1.2044046669e+00
1.2044091340e+00
1.2044135732e+00
1.2044180011e+00
1.2044224283e+00
1.2044268595e+00
1.2044312953e+00
1.2044357317e+00
1.2044401621e+00
1.2044445761e+00
1.2044489614e+00
1.2044533031e+00
1.2044575850e+00
1.2044617887e+00
1.2044658949e+00
1.2044698829e+00
1.2044737317e+00
1.2044774187e+00
1.2044809219e+00
1.2044842180e+00
1.2044872845e+00
1.2044900981e+00
1.2044926367e+00
1.2044948777e+00
1.2044967998e+00
1.2044983816e+00
1.2044996032e+00
1.2045004446e+00
1.2045008872e+00
1.2045009122e+00
1.2045005016e+00
1.2044996367e+00
1.2044982983e+00
1.2044964648e+00
1.2044941122e+00
1.2044912111e+00
1.2044877257e+00
1.2044836111e+00
1.2044788125e+00
1.2044732662e+00
1.2044669079e+00
1.2044596978e+00
1.2044516814e+00
1.2044806051e+00
1.2002475220e+00
1.2002110478e+00
1.2002493540e+00
1.2003063643e+00
1.2003810473e+00
1.2004723050e+00
1.2005789096e+00
1.2006994803e+00
1.2008324965e+00
1.2009763159e+00
1.2011292106e+00
1.2012893958e+00
1.2014550709e+00
1.2016244487e+00
1.2017957927e+00
1.2019674421e+00
1.2021378416e+00
1.2023055587e+00
1.2024693054e+00
1.2026279459e+00
1.2027805090e+00
1.2029261874e+00
1.2030643416e+00
1.2031944916e+00
1.2033163132e+00
1.2034296253e+00
1.2035343801e+00
1.2036306473e+00
1.2037186018e+00
1.2037985058e+00
1.2038706963e+00
1.2039355679e+00
1.2039935602e+00
1.2040451427e+00
1.2040908045e+00
1.2041310417e+00
1.2041663491e+00
1.2041972113e+00
1.2042240966e+00
1.2042474511e+00
1.2042676955e+00
1.2042852213e+00
1.2043003899e+00
1.2043135309e+00
1.2043249428e+00
1.2043348930e+00
1.2043436195e+00
1.2043513317e+00
1.2043582127e+00
1.2043644209e+00
1.2043700925e+00
1.2043753432e+00
1.2043802704e+00
1.2043849554e+00
1.2043894648e+00
1.2043938529e+00
1.2043981625e+00
1.2044024273e+00
1.2044066722e+00
1.2044109152e+00
1.2044151679e+00
1.2044194369e+00
1.2044237238e+00
1.2044280267e+00
1.2044323399e+00
1.2044366552e+00
1.2044409613e+00
1.2044452454e+00
1.2044494921e+00
1.2044536850e+00
1.2044578056e+00
1.2044618352e+00
1.2044657529e+00
1.2044695382e+00
1.2044731690e+00
1.2044766236e+00
1.2044798790e+00
1.2044829134e+00
1.2044857037e+00
1.2044882282e+00
1.2044904643e+00
1.2044923909e+00
1.2044939863e+00
1.2044952304e+00
1.2044961022e+00
1.2044965824e+00
1.2044966505e+00
1.2044962870e+00
1.2044954707e+00
1.2044941803e+00
1.2044923920e+00
1.2044900806e+00
1.2044872179e+00
1.2044837744e+00
1.2044797215e+00
1.2044750385e+00
1.2044697271e+00
1.2044638424e+00
1.2044575491e+00
1.2044911432e+00
1.2003091217e+00
1.2002699734e+00
1.2003063643e+00
1.2003615730e+00
1.2004345446e+00
1.2005241300e+00
1.2006290488e+00
1.2007478857e+00
1.2008790944e+00
1.2010210244e+00
1.2011719433e+00
1.2013300749e+00
1.2014936261e+00
1.2016608264e+00
1.2018299529e+00
1.2019993645e+00
1.2021675211e+00
1.2023330103e+00
1.2024945581e+00
1.2026510467e+00
1.2028015168e+00
1.2029451759e+00
1.2030813927e+00
1.2032096980e+00
1.2033297727e+00
1.2034414418e+00
1.2035446589e+00
1.2036394960e+00
1.2037261262e+00
1.2038048107e+00
1.2038758821e+00
1.2039397313e+00
1.2039967914e+00
1.2040475270e+00
1.2040924196e+00
1.2041319590e+00
1.2041666327e+00
1.2041969187e+00
1.2042232781e+00
1.2042461509e+00
1.2042659513e+00
1.2042830654e+00
1.2042978492e+00
1.2043106277e+00
1.2043216953e+00
1.2043313159e+00
1.2043397241e+00
1.2043471269e+00
1.2043537052e+00
1.2043596161e+00
1.2043649943e+00
1.2043699547e+00
1.2043745946e+00
1.2043789949e+00
1.2043832226e+00
1.2043873323e+00
1.2043913680e+00
1.2043953637e+00
1.2043993460e+00
1.2044033339e+00
1.2044073408e+00
1.2044113746e+00
1.2044154390e+00
1.2044195334e+00
1.2044236545e+00
1.2044277953e+00
1.2044319472e+00
1.2044360985e+00
1.2044402365e+00
1.2044443459e+00
1.2044484109e+00
1.2044524134e+00
1.2044563354e+00
1.2044601567e+00
1.2044638576e+00
1.2044674166e+00
1.2044708130e+00
1.2044740244e+00
1.2044770298e+00
1.2044798064e+00
1.2044823332e+00
1.2044845877e+00
1.2044865491e+00
1.2044881953e+00
1.2044895058e+00
1.2044904589e+00
1.2044910344e+00
1.2044912105e+00
1.2044909666e+00
1.2044902804e+00
1.2044891304e+00
1.2044874942e+00
1.2044853509e+00
1.2044826819e+00
1.2044794765e+00
1.2044757381e+00
1.2044714990e+00
1.2044668424e+00
1.2044619362e+00
1.2044991216e+00
1.2003866604e+00
1.2003461820e+00
1.2003810473e+00
1.2004345446e+00
1.2005056706e+00
1.2005932812e+00
1.2006960922e+00
1.2008126790e+00
1.2009414964e+00
1.2010808956e+00
1.2012291583e+00
1.2013845205e+00
1.2015452123e+00
1.2017094822e+00
1.2018756342e+00
1.2020420487e+00
1.2022072130e+00
1.2023697352e+00
1.2025283666e+00
1.2026820068e+00
1.2028297176e+00
1.2029707197e+00
1.2031043976e+00
1.2032302905e+00
1.2033480894e+00
1.2034576226e+00
1.2035588486e+00
1.2036518382e+00
1.2037367645e+00
1.2038138839e+00
1.2038835251e+00
1.2039460714e+00
1.2040019496e+00
1.2040516149e+00
1.2040955409e+00
1.2041342075e+00
1.2041680933e+00
1.2041976667e+00
1.2042233804e+00
1.2042456654e+00
1.2042649281e+00
1.2042815469e+00
1.2042958711e+00
1.2043082195e+00
1.2043188808e+00
1.2043281142e+00
1.2043361501e+00
1.2043431920e+00
1.2043494179e+00
1.2043549824e+00
1.2043600184e+00
1.2043646398e+00
1.2043689426e+00
1.2043730076e+00
1.2043769016e+00
1.2043806797e+00
1.2043843860e+00
1.2043880562e+00
1.2043917173e+00
1.2043953902e+00
1.2043990894e+00
1.2044028250e+00
1.2044066020e+00
1.2044104223e+00
1.2044142841e+00
1.2044181834e+00
1.2044221128e+00
1.2044260638e+00
1.2044300250e+00
1.2044339843e+00
1.2044379270e+00
1.2044418384e+00
1.2044457012e+00
1.2044494985e+00
1.2044532112e+00
1.2044568207e+00
1.2044603066e+00
1.2044636491e+00
1.2044668269e+00
1.2044698196e+00
1.2044726053e+00
1.2044751634e+00
1.2044774716e+00
1.2044795092e+00
1.2044812540e+00
1.2044826851e+00
1.2044837802e+00
1.2044845184e+00
1.2044848773e+00
1.2044848363e+00
1.2044843739e+00
1.2044834710e+00
1.2044821105e+00
1.2044802811e+00
1.2044779805e+00
1.2044752226e+00
1.2044720466e+00
1.2044685316e+00
1.2044648104e+00
1.2045048378e+00
1.2004796551e+00
1.2004387436e+00
1.2004723050e+00
1.2005241300e+00
1.2005932812e+00
1.2006786527e+00
1.2007789782e+00
1.2008928515e+00
1.2010187407e+00
1.2011550197e+00
1.2012999894e+00
1.2014519161e+00
1.2016090548e+00
1.2017696887e+00
1.2019321498e+00
1.2020948536e+00
1.2022563150e+00
1.2024151750e+00
1.2025702091e+00
1.2027203454e+00
1.2028646645e+00
1.2030024095e+00
1.2031329779e+00
1.2032559240e+00
1.2033709455e+00
1.2034778794e+00
1.2035766847e+00
1.2036674345e+00
1.2037502975e+00
1.2038255273e+00
1.2038934444e+00
1.2039544253e+00
1.2040088862e+00
1.2040572729e+00
1.2041000469e+00
1.2041376779e+00
1.2041706322e+00
1.2041993674e+00
1.2042243249e+00
1.2042459255e+00
1.2042645655e+00
1.2042806143e+00
1.2042944125e+00
1.2043062715e+00
1.2043164731e+00
1.2043252706e+00
1.2043328890e+00
1.2043395274e+00
1.2043453602e+00
1.2043505387e+00
1.2043551937e+00
1.2043594370e+00
1.2043633636e+00
1.2043670532e+00
1.2043705726e+00
1.2043739765e+00
1.2043773102e+00
1.2043806093e+00
1.2043839025e+00
1.2043872116e+00
1.2043905532e+00
1.2043939384e+00
1.2043973749e+00
1.2044008660e+00
1.2044044128e+00
1.2044080128e+00
1.2044116619e+00
1.2044153532e+00
1.2044190787e+00
1.2044228276e+00
1.2044265892e+00
1.2044303497e+00
1.2044340957e+00
1.2044378112e+00
1.2044414808e+00
1.2044450864e+00
1.2044486112e+00
1.2044520355e+00
1.2044553412e+00
1.2044585076e+00
1.2044615156e+00
1.2044643436e+00
1.2044669717e+00
1.2044693778e+00
1.2044715414e+00
1.2044734400e+00
1.2044750525e+00
1.2044763563e+00
1.2044773304e+00
1.2044779528e+00
1.2044782039e+00
1.2044780649e+00
1.2044775216e+00
1.2044765646e+00
1.2044751947e+00
1.2044734259e+00
1.2044712931e+00
1.2044688575e+00
1.2044662121e+00
1.2045085347e+00
1.2005872850e+00
1.2005465425e+00
1.2005789096e+00
1.2006290488e+00
1.2006960922e+00
1.2007789782e+00
1.2008764789e+00
1.2009872162e+00
1.2011096920e+00
1.2012423083e+00
1.2013834038e+00
1.2015312770e+00
1.2016842251e+00
1.2018405659e+00
1.2019986748e+00
1.2021570020e+00
1.2023141036e+00
1.2024686519e+00
1.2026194590e+00
1.2027654787e+00
1.2029058212e+00
1.2030397482e+00
1.2031666791e+00
1.2032861793e+00
1.2033979599e+00
1.2035018616e+00
1.2035978492e+00
1.2036859933e+00
1.2037664613e+00
1.2038394993e+00
1.2039054215e+00
1.2039645931e+00
1.2040174203e+00
1.2040643353e+00
1.2041057881e+00
1.2041422336e+00
1.2041741259e+00
1.2042019086e+00
1.2042260106e+00
1.2042468402e+00
1.2042647824e+00
1.2042801956e+00
1.2042934108e+00
1.2043047303e+00
1.2043144279e+00
1.2043227497e+00
1.2043299147e+00
1.2043361167e+00
1.2043415253e+00
1.2043462885e+00
1.2043505339e+00
1.2043543710e+00
1.2043578930e+00
1.2043611788e+00
1.2043642941e+00
1.2043672940e+00
1.2043702232e+00
1.2043731188e+00
1.2043760097e+00
1.2043789196e+00
1.2043818658e+00
1.2043848619e+00
1.2043879167e+00
1.2043910367e+00
1.2043942241e+00
1.2043974798e+00
1.2044008013e+00
1.2044041851e+00
1.2044076249e+00
1.2044111139e+00
1.2044146426e+00
1.2044182013e+00
1.2044217778e+00
1.2044253604e+00
1.2044289344e+00
1.2044324860e+00
1.2044359987e+00
1.2044394570e+00
1.2044428426e+00
1.2044461387e+00
1.2044493256e+00
1.2044523850e+00
1.2044552961e+00
1.2044580393e+00
1.2044605929e+00
1.2044629364e+00
1.2044650472e+00
1.2044669044e+00
1.2044684851e+00
1.2044697691e+00
1.2044707354e+00
1.2044713666e+00
1.2044716475e+00
1.2044715695e+00
1.2044711309e+00
1.2044703421e+00
1.2044692267e+00
1.2044678269e+00
1.2044662002e+00
1.2045103764e+00
1.2007084372e+00
1.2006682733e+00
1.2006994803e+00
1.2007478857e+00
1.2008126790e+00
1.2008928515e+00
1.2009872162e+00
1.2010944397e+00
1.2012130612e+00
1.2013415285e+00
1.2014782196e+00
1.2016214827e+00
1.2017696565e+00
1.2019211100e+00
1.2020742603e+00
1.2022276074e+00
1.2023797460e+00
1.2025293935e+00
1.2026753950e+00
1.2028167420e+00
1.2029525704e+00
1.2030821707e+00
1.2032049791e+00
1.2033205805e+00
1.2034286944e+00
1.2035291716e+00
1.2036219774e+00
1.2037071842e+00
1.2037849535e+00
1.2038555264e+00
1.2039192060e+00
1.2039763481e+00
1.2040273443e+00
1.2040726144e+00
1.2041125922e+00
1.2041477187e+00
1.2041784317e+00
1.2042051607e+00
1.2042283194e+00
1.2042483028e+00
1.2042654824e+00
1.2042802048e+00
1.2042927894e+00
1.2043035287e+00
1.2043126874e+00
1.2043205033e+00
1.2043271886e+00
1.2043329307e+00
1.2043378944e+00
1.2043422230e+00
1.2043460409e+00
1.2043494546e+00
1.2043525554e+00
1.2043554203e+00
1.2043581145e+00
1.2043606922e+00
1.2043631986e+00
1.2043656706e+00
1.2043681386e+00
1.2043706264e+00
1.2043731537e+00
1.2043757348e+00
1.2043783813e+00
1.2043811006e+00
1.2043838983e+00
1.2043867765e+00
1.2043897364e+00
1.2043927759e+00
1.2043958927e+00
1.2043990813e+00
1.2044023364e+00
1.2044056498e+00
1.2044090137e+00
1.2044124173e+00
1.2044158504e+00
1.2044193002e+00
1.2044227546e+00
1.2044261985e+00
1.2044296179e+00
1.2044329959e+00
1.2044363168e+00
1.2044395619e+00
1.2044427138e+00
1.2044457521e+00
1.2044486580e+00
1.2044514096e+00
1.2044539868e+00
1.2044563670e+00
1.2044585293e+00
1.2044604515e+00
1.2044621141e+00
1.2044634975e+00
1.2044645870e+00
1.2044653705e+00
1.2044658436e+00
1.2044660089e+00
1.2044658796e+00
1.2044654787e+00
1.2044648372e+00
1.2045104675e+00
1.2008417664e+00
1.2008024582e+00
1.2008324965e+00
1.2008790944e+00
1.2009414964e+00
1.2010187407e+00
1.2011096920e+00
1.2012130612e+00
1.2013274400e+00
1.2014513220e+00
1.2015831416e+00
1.2017212945e+00
1.2018641780e+00
1.2020102097e+00
1.2021578643e+00
1.2023056877e+00
1.2024523283e+00
1.2025965442e+00
1.2027372266e+00
1.2028734000e+00
1.2030042371e+00
1.2031290521e+00
1.2032473077e+00
1.2033586027e+00
1.2034626722e+00
1.2035593719e+00
1.2036486731e+00
1.2037306447e+00
1.2038054462e+00
1.2038733089e+00
1.2039345274e+00
1.2039894430e+00
1.2040384348e+00
1.2040819057e+00
1.2041202741e+00
1.2041539635e+00
1.2041833958e+00
1.2042089830e+00
1.2042311237e+00
1.2042501970e+00
1.2042665603e+00
1.2042805465e+00
1.2042924633e+00
1.2043025913e+00
1.2043111855e+00
1.2043184749e+00
1.2043246635e+00
1.2043299322e+00
1.2043344399e+00
1.2043383250e+00
1.2043417079e+00
1.2043446919e+00
1.2043473656e+00
1.2043498046e+00
1.2043520722e+00
1.2043542224e+00
1.2043562997e+00
1.2043583416e+00
1.2043603784e+00
1.2043624357e+00
1.2043645333e+00
1.2043666880e+00
1.2043689120e+00
1.2043712157e+00
1.2043736058e+00
1.2043760877e+00
1.2043786637e+00
1.2043813358e+00
1.2043841027e+00
1.2043869633e+00
1.2043899135e+00
1.2043929494e+00
1.2043960645e+00
1.2043992526e+00
1.2044025046e+00
1.2044058122e+00
1.2044091641e+00
1.2044125499e+00
1.2044159559e+00
1.2044193698e+00
1.2044227757e+00
1.2044261592e+00
1.2044295023e+00
1.2044327884e+00
1.2044359978e+00
1.2044391116e+00
1.2044421086e+00
1.2044449685e+00
1.2044476690e+00
1.2044501895e+00
1.2044525083e+00
1.2044546067e+00
1.2044564664e+00
1.2044580741e+00
1.2044594195e+00
1.2044604989e+00
1.2044613139e+00
1.2044618730e+00
1.2044621864e+00
1.2045088789e+00
1.2009857475e+00
1.2009474823e+00
1.2009763159e+00
1.2010210244e+00
1.2010808956e+00
1.2011550197e+00
1.2012423083e+00
1.2013415285e+00
1.2014513220e+00
1.2015702436e+00
1.2016967804e+00
1.2018293926e+00
1.2019665319e+00
1.2021066807e+00
1.2022483666e+00
1.2023901970e+00
1.2025308685e+00
1.2026691938e+00
1.2028041050e+00
1.2029346716e+00
1.2030600975e+00
1.2031797311e+00
1.2032930553e+00
1.2033996914e+00
1.2034993848e+00
1.2035920022e+00
1.2036775154e+00
1.2037559951e+00
1.2038275932e+00
1.2038925347e+00
1.2039511010e+00
1.2040036214e+00
1.2040504579e+00
1.2040919979e+00
1.2041286412e+00
1.2041607939e+00
1.2041888589e+00
1.2042132314e+00
1.2042342919e+00
1.2042524034e+00
1.2042679076e+00
1.2042811233e+00
1.2042923444e+00
1.2043018398e+00
1.2043098535e+00
1.2043166047e+00
1.2043222891e+00
1.2043270801e+00
1.2043311301e+00
1.2043345725e+00
1.2043375229e+00
1.2043400810e+00
1.2043423329e+00
1.2043443513e+00
1.2043461986e+00
1.2043479273e+00
1.2043495817e+00
1.2043511987e+00
1.2043528095e+00
1.2043544396e+00
1.2043561107e+00
1.2043578397e+00
1.2043596414e+00
1.2043615268e+00
1.2043635056e+00
1.2043655841e+00
1.2043677682e+00
1.2043700607e+00
1.2043724645e+00
1.2043749793e+00
1.2043776055e+00
1.2043803403e+00
1.2043831817e+00
1.2043861244e+00
1.2043891642e+00
1.2043922936e+00
1.2043955061e+00
1.2043987919e+00
1.2044021421e+00
1.2044055446e+00
1.2044089883e+00
1.2044124584e+00
1.2044159415e+00
1.2044194205e+00
1.2044228793e+00
1.2044262984e+00
1.2044296596e+00
1.2044329416e+00
1.2044361243e+00
1.2044391855e+00
1.2044421048e+00
1.2044448609e+00
1.2044474354e+00
1.2044498103e+00
1.2044519720e+00
1.2044539093e+00
1.2044556153e+00
1.2044570857e+00
1.2044583168e+00
1.2045056690e+00
1.2011387297e+00
1.2011016274e+00
1.2011292106e+00
1.2011719433e+00
1.2012291583e+00
1.2012999894e+00
1.2013834038e+00
1.2014782196e+00
1.2015831416e+00
1.2016967804e+00
1.2018176915e+00
1.2019443941e+00
1.2020754105e+00
1.2022092815e+00
1.2023446035e+00
1.2024800391e+00
1.2026143475e+00
1.2027463897e+00
1.2028751514e+00
1.2029997409e+00
1.2031194044e+00
1.2032335178e+00
1.2033415941e+00
1.2034432708e+00
1.2035383107e+00
1.2036265861e+00
1.2037080751e+00
1.2037828445e+00
1.2038510430e+00
1.2039128845e+00
1.2039686402e+00
1.2040186229e+00
1.2040631799e+00
1.2041026789e+00
1.2041375023e+00
1.2041680360e+00
1.2041946646e+00
1.2042177634e+00
1.2042376953e+00
1.2042548053e+00
1.2042694192e+00
1.2042818399e+00
1.2042923476e+00
1.2043011983e+00
1.2043086242e+00
1.2043148345e+00
1.2043200158e+00
1.2043243334e+00
1.2043279331e+00
1.2043309423e+00
1.2043334719e+00
1.2043356177e+00
1.2043374621e+00
1.2043390759e+00
1.2043405191e+00
1.2043418433e+00
1.2043430914e+00
1.2043443006e+00
1.2043455015e+00
1.2043467205e+00
1.2043479792e+00
1.2043492964e+00
1.2043506872e+00
1.2043521650e+00
1.2043537399e+00
1.2043554214e+00
1.2043572160e+00
1.2043591302e+00
1.2043611673e+00
1.2043633315e+00
1.2043656237e+00
1.2043680455e+00
1.2043705958e+00
1.2043732739e+00
1.2043760763e+00
1.2043790004e+00
1.2043820403e+00
1.2043851910e+00
1.2043884443e+00
1.2043917927e+00
1.2043952254e+00
1.2043987323e+00
1.2044022998e+00
1.2044059152e+00
1.2044095620e+00
1.2044132247e+00
1.2044168841e+00
1.2044205221e+00
1.2044241175e+00
1.2044276504e+00
1.2044310985e+00
1.2044344413e+00
1.2044376573e+00
1.2044407274e+00
1.2044436327e+00
1.2044463575e+00
1.2044488866e+00
1.2044512074e+00
1.2044533049e+00
1.2045008996e+00
1.2012989810e+00
1.2012631147e+00
1.2012893958e+00
1.2013300749e+00
1.2013845205e+00
1.2014519161e+00
1.2015312770e+00
1.2016214827e+00
1.2017212945e+00
1.2018293926e+00
1.2019443941e+00
1.2020648924e+00
1.2021894727e+00
1.2023167502e+00
1.2024453823e+00
1.2025741013e+00
1.2027017218e+00
1.2028271666e+00
1.2029494673e+00
1.2030677832e+00
1.2031813953e+00
1.2032897177e+00
1.2033922862e+00
1.2034887631e+00
1.2035789224e+00
1.2036626486e+00
1.2037399202e+00
1.2038108055e+00
1.2038754447e+00
1.2039340446e+00
1.2039868613e+00
1.2040341943e+00
1.2040763717e+00
1.2041137441e+00
1.2041466728e+00
1.2041755247e+00
1.2042006633e+00
1.2042224450e+00
1.2042412129e+00
1.2042572943e+00
1.2042709972e+00
1.2042826090e+00
1.2042923948e+00
1.2043005974e+00
1.2043074370e+00
1.2043131118e+00
1.2043177989e+00
1.2043216555e+00
1.2043248200e+00
1.2043274137e+00
1.2043295423e+00
1.2043312972e+00
1.2043327576e+00
1.2043339910e+00
1.2043350558e+00
1.2043360012e+00
1.2043368700e+00
1.2043376977e+00
1.2043385153e+00
1.2043393488e+00
1.2043402207e+00
1.2043411497e+00
1.2043421528e+00
1.2043432433e+00
1.2043444340e+00
1.2043457345e+00
1.2043471544e+00
1.2043487005e+00
1.2043503799e+00
1.2043521970e+00
1.2043541568e+00
1.2043562615e+00