# vtk DataFile Version 2.0
Blank
ASCII
DATASET STRUCTURED_GRID
DIMENSIONS 101 101 2
POINTS 20402 float
0.0000000000e+00 0.0000000000e+00 0.0000000000e+00
1.0000000000e-02 0.0000000000e+00 0.0000000000e+00
2.0000000000e-02 0.0000000000e+00 0.0000000000e+00
3.0000000000e-02 0.0000000000e+00 0.0000000000e+00
4.0000000000e-02 0.0000000000e+00 0.0000000000e+00
5.0000000000e-02 0.0000000000e+00 0.0000000000e+00
6.0000000000e-02 0.0000000000e+00 0.0000000000e+00
7.0000000000e-02 0.0000000000e+00 0.0000000000e+00
8.0000000000e-02 0.0000000000e+00 0.0000000000e+00
9.0000000000e-02 0.0000000000e+00 0.0000000000e+00
1.0000000000e-01 0.0000000000e+00 0.0000000000e+00
1.1000000000e-01 0.0000000000e+00 0.0000000000e+00
1.2000000000e-01 0.0000000000e+00 0.0000000000e+00
1.3000000000e-01 0.0000000000e+00 0.0000000000e+00
1.4000000000e-01 0.0000000000e+00 0.0000000000e+00
1.5000000000e-01 0.0000000000e+00 0.0000000000e+00
1.6000000000e-01 0.0000000000e+00 0.0000000000e+00
1.7000000000e-01 0.0000000000e+00 0.0000000000e+00
1.8000000000e-01 0.0000000000e+00 0.0000000000e+00
1.9000000000e-01 0.0000000000e+00 0.0000000000e+00
2.0000000000e-01 0.0000000000e+00 0.0000000000e+00
2.1000000000e-01 0.0000000000e+00 0.0000000000e+00
2.2000000000e-01 0.0000000000e+00 0.0000000000e+00
2.3000000000e-01 0.0000000000e+00 0.0000000000e+00
2.4000000000e-01 0.0000000000e+00 0.0000000000e+00
2.5000000000e-01 0.0000000000e+00 0.0000000000e+00
2.6000000000e-01 0.0000000000e+00 0.0000000000e+00
2.7000000000e-01 0.0000000000e+00 0.0000000000e+00
2.8000000000e-01 0.0000000000e+00 0.0000000000e+00
2.9000000000e-01 0.0000000000e+00 0.0000000000e+00
3.0000000000e-01 0.0000000000e+00 0.0000000000e+00
3.1000000000e-01 0.0000000000e+00 0.0000000000e+00
3.2000000000e-01 0.0000000000e+00 0.0000000000e+00
3.3000000000e-01 0.0000000000e+00 0.0000000000e+00
3.4000000000e-01 0.0000000000e+00 0.0000000000e+00
3.5000000000e-01 0.0000000000e+00 0.0000000000e+00
3.6000000000e-01 0.0000000000e+00 0.0000000000e+00
3.7000000000e-01 0.0000000000e+00 0.0000000000e+00
3.8000000000e-01 0.0000000000e+00 0.0000000000e+00
3.9000000000e-01 0.0000000000e+00 0.0000000000e+00
4.0000000000e-01 0.0000000000e+00 0.0000000000e+00
4.1000000000e-01 0.0000000000e+00 0.0000000000e+00
4.2000000000e-01 0.0000000000e+00 0.0000000000e+00
4.3000000000e-01 0.0000000000e+00 0.0000000000e+00
4.4000000000e-01 0.0000000000e+00 0.0000000000e+00
4.5000000000e-01 0.0000000000e+00 0.0000000000e+00
4.6000000000e-01 0.0000000000e+00 0.0000000000e+00
4.7000000000e-01 0.0000000000e+00 0.0000000000e+00
4.8000000000e-01 0.0000000000e+00 0.0000000000e+00
4.9000000000e-01 0.0000000000e+00 0.0000000000e+00
5.0000000000e-01 0.0000000000e+00 0.0000000000e+00
5.1000000000e-01 0.0000000000e+00 0.0000000000e+00
5.2000000000e-01 0.0000000000e+00 0.0000000000e+00
5.3000000000e-01 0.0000000000e+00 0.0000000000e+00
5.4000000000e-01 0.0000000000e+00 0.0000000000e+00
5.5000000000e-01 0.0000000000e+00 0.0000000000e+00
5.6000000000e-01 0.0000000000e+00 0.0000000000e+00
5.7000000000e-01 0.0000000000e+00 0.0000000000e+00
5.8000000000e-01 0.0000000000e+00 0.0000000000e+00
5.9000000000e-01 0.0000000000e+00 0.0000000000e+00
6.0000000000e-01 0.0000000000e+00 0.0000000000e+00
6.1000000000e-01 0.0000000000e+00 0.0000000000e+00
6.2000000000e-01 0.0000000000e+00 0.0000000000e+00
6.3000000000e-01 0.0000000000e+00 0.0000000000e+00
6.4000000000e-01 0.0000000000e+00 0.0000000000e+00
6.5000000000e-01 0.0000000000e+00 0.0000000000e+00
6.6000000000e-01 0.0000000000e+00 0.0000000000e+00
6.7000000000e-01 0.0000000000e+00 0.0000000000e+00
6.8000000000e-01 0.0000000000e+00 0.0000000000e+00
6.9000000000e-01 0.0000000000e+00 0.0000000000e+00
7.0000000000e-01 0.0000000000e+00 0.0000000000e+00
7.1000000000e-01 0.0000000000e+00 0.0000000000e+00
7.2000000000e-01 0.0000000000e+00 0.0000000000e+00
7.3000000000e-01 0.0000000000e+00 0.0000000000e+00
7.4000000000e-01 0.0000000000e+00 0.0000000000e+00
7.5000000000e-01 0.0000000000e+00 0.0000000000e+00
7.6000000000e-01 0.0000000000e+00 0.0000000000e+00
7.7000000000e-01 0.0000000000e+00 0.0000000000e+00
7.8000000000e-01 0.0000000000e+00 0.0000000000e+00
7.9000000000e-01 0.0000000000e+00 0.0000000000e+00
8.0000000000e-01 0.0000000000e+00 0.0000000000e+00
8.1000000000e-01 0.0000000000e+00 0.0000000000e+00
8.2000000000e-01 0.0000000000e+00 0.0000000000e+00
8.3000000000e-01 0.0000000000e+00 0.0000000000e+00
8.4000000000e-01 0.0000000000e+00 0.0000000000e+00
8.5000000000e-01 0.0000000000e+00 0.0000000000e+00
8.6000000000e-01 0.0000000000e+00 0.0000000000e+00
8.7000000000e-01 0.0000000000e+00 0.0000000000e+00
8.8000000000e-01 0.0000000000e+00 0.0000000000e+00
8.9000000000e-01 0.0000000000e+00 0.0000000000e+00
9.0000000000e-01 0.0000000000e+00 0.0000000000e+00
9.1000000000e-01 0.0000000000e+00 0.0000000000e+00
9.2000000000e-01 0.0000000000e+00 0.0000000000e+00
9.3000000000e-01 0.0000000000e+00 0.0000000000e+00
9.4000000000e-01 0.0000000000e+00 0.0000000000e+00
9.5000000000e-01 0.0000000000e+00 0.0000000000e+00
9.6000000000e-01 0.0000000000e+00 0.0000000000e+00
9.7000000000e-01 0.0000000000e+00 0.0000000000e+00
9.8000000000e-01 0.0000000000e+00 0.0000000000e+00
9.9000000000e-01 0.0000000000e+00 0.0000000000e+00
1.0000000000e+00 0.0000000000e+00 0.0000000000e+00
0.0000000000e+00 1.0000000000e-02 0.0000000000e+00
1.0000000000e-02 1.0000000000e-02 0.0000000000e+00
2.0000000000e-02 1.0000000000e-02 0.0000000000e+00
3.0000000000e-02 1.0000000000e-02 0.0000000000e+00
4.0000000000e-02 1.0000000000e-02 0.0000000000e+00
5.0000000000e-02 1.0000000000e-02 0.0000000000e+00
6.0000000000e-02 1.0000000000e-02 0.0000000000e+00
7.0000000000e-02 1.0000000000e-02 0.0000000000e+00
8.0000000000e-02 1.0000000000e-02 0.0000000000e+00
9.0000000000e-02 1.0000000000e-02 0.0000000000e+00
1.0000000000e-01 1.0000000000e-02 0.0000000000e+00
1.1000000000e-01 1.0000000000e-02 0.0000000000e+00
1.2000000000e-01 1.0000000000e-02 0.0000000000e+00
1.3000000000e-01 1.0000000000e-02 0.0000000000e+00
1.4000000000e-01 1.0000000000e-02 0.0000000000e+00
1.5000000000e-01 1.0000000000e-02 0.0000000000e+00
1.6000000000e-01 1.0000000000e-02 0.0000000000e+00
1.7000000000e-01 1.0000000000e-02 0.0000000000e+00
1.8000000000e-01 1.0000000000e-02 0.0000000000e+00
1.9000000000e-01 1.0000000000e-02 0.0000000000e+00
2.0000000000e-01 1.0000000000e-02 0.0000000000e+00
2.1000000000e-01 1.0000000000e-02 0.0000000000e+00
2.2000000000e-01 1.0000000000e-02 0.0000000000e+00
2.3000000000e-01 1.0000000000e-02 0.0000000000e+00
2.4000000000e-01 1.0000000000e-02 0.0000000000e+00
2.5000000000e-01 1.0000000000e-02 0.0000000000e+00
2.6000000000e-01 1.0000000000e-02 0.0000000000e+00
2.7000000000e-01 1.0000000000e-02 0.0000000000e+00
2.8000000000e-01 1.0000000000e-02 0.0000000000e+00
2.9000000000e-01 1.0000000000e-02 0.0000000000e+00
3.0000000000e-01 1.0000000000e-02 0.0000000000e+00
3.1000000000e-01 1.0000000000e-02 0.0000000000e+00
3.2000000000e-01 1.0000000000e-02 0.0000000000e+00
3.3000000000e-01 1.0000000000e-02 0.0000000000e+00
3.4000000000e-01 1.0000000000e-02 0.0000000000e+00
3.5000000000e-01 1.0000000000e-02 0.0000000000e+00
3.6000000000e-01 1.0000000000e-02 0.0000000000e+00
3.7000000000e-01 1.0000000000e-02 0.0000000000e+00
3.8000000000e-01 1.0000000000e-02 0.0000000000e+00
3.9000000000e-01 1.0000000000e-02 0.0000000000e+00
4.0000000000e-01 1.0000000000e-02 0.0000000000e+00
4.1000000000e-01 1.0000000000e-02 0.0000000000e+00
4.2000000000e-01 1.0000000000e-02 0.0000000000e+00
4.3000000000e-01 1.0000000000e-02 0.0000000000e+00
4.4000000000e-01 1.0000000000e-02 0.0000000000e+00
4.5000000000e-01 1.0000000000e-02 0.0000000000e+00
4.6000000000e-01 1.0000000000e-02 0.0000000000e+00
4.7000000000e-01 1.0000000000e-02 0.0000000000e+00
4.8000000000e-01 1.0000000000e-02 0.0000000000e+00
4.9000000000e-01 1.0000000000e-02 0.0000000000e+00
5.0000000000e-01 1.0000000000e-02 0.0000000000e+00
5.1000000000e-01 1.0000000000e-02 0.0000000000e+00
5.2000000000e-01 1.0000000000e-02 0.0000000000e+00
5.3000000000e-01 1.0000000000e-02 0.0000000000e+00
5.4000000000e-01 1.0000000000e-02 0.0000000000e+00
5.5000000000e-01 1.0000000000e-02 0.0000000000e+00
5.6000000000e-01 1.0000000000e-02 0.0000000000e+00
5.7000000000e-01 1.0000000000e-02 0.0000000000e+00
5.8000000000e-01 1.0000000000e-02 0.0000000000e+00
5.9000000000e-01 1.0000000000e-02 0.0000000000e+00
6.0000000000e-01 1.0000000000e-02 0.0000000000e+00
6.1000000000e-01 1.0000000000e-02 0.0000000000e+00
6.2000000000e-01 1.0000000000e-02 0.0000000000e+00
6.3000000000e-01 1.0000000000e-02 0.0000000000e+00
6.4000000000e-01 1.0000000000e-02 0.0000000000e+00
6.5000000000e-01 1.0000000000e-02 0.0000000000e+00
6.6000000000e-01 1.0000000000e-02 0.0000000000e+00
6.7000000000e-01 1.0000000000e-02 0.0000000000e+00
6.8000000000e-01 1.0000000000e-02 0.0000000000e+00
6.9000000000e-01 1.0000000000e-02 0.0000000000e+00
7.0000000000e-01 1.0000000000e-02 0.0000000000e+00
7.1000000000e-01 1.0000000000e-02 0.0000000000e+00
7.2000000000e-01 1.0000000000e-02 0.0000000000e+00
7.3000000000e-01 1.0000000000e-02 0.0000000000e+00
7.4000000000e-01 1.0000000000e-02 0.0000000000e+00
7.5000000000e-01 1.0000000000e-02 0.0000000000e+00
7.6000000000e-01 1.0000000000e-02 0.0000000000e+00
7.7000000000e-01 1.0000000000e-02 0.0000000000e+00
7.8000000000e-01 1.0000000000e-02 0.0000000000e+00
7.9000000000e-01 1.0000000000e-02 0.0000000000e+00
8.0000000000e-01 1.0000000000e-02 0.0000000000e+00
8.1000000000e-01 1.0000000000e-02 0.0000000000e+00
8.2000000000e-01 1.0000000000e-02 0.0000000000e+00
8.3000000000e-01 1.0000000000e-02 0.0000000000e+00
8.4000000000e-01 1.0000000000e-02 0.0000000000e+00
8.5000000000e-01 1.0000000000e-02 0.0000000000e+00
8.6000000000e-01 1.0000000000e-02 0.0000000000e+00
8.7000000000e-01 1.0000000000e-02 0.0000000000e+00
8.8000000000e-01 1.0000000000e-02 0.0000000000e+00
8.9000000000e-01 1.0000000000e-02 0.0000000000e+00
9.0000000000e-01 1.0000000000e-02 0.0000000000e+00
9.1000000000e-01 1.0000000000e-02 0.0000000000e+00
9.2000000000e-01 1.0000000000e-02 0.0000000000e+00
[...]
CELL_DATA 10000

SCALARS massDensity float
LOOKUP_TABLE default
1.1958839473e+00
1.1959790798e+00
1.1961180663e+00
1.1963258145e+00
1.1965965629e+00
1.1969231603e+00
1.1972973868e+00
1.1977102394e+00
1.1981522824e+00
1.1986139526e+00
1.1990859049e+00
1.1995592784e+00
1.2000259731e+00
1.2004788246e+00
1.2009117714e+00
1.2013199158e+00
1.2016995722e+00
1.2020482203e+00
1.2023644546e+00
1.2026478583e+00
1.2028988894e+00
1.2031187154e+00
1.2033090759e+00
1.2034721161e+00
1.2036102585e+00
1.2037260627e+00
1.2038221285e+00
1.2039009942e+00
1.2039650791e+00
1.2040166230e+00
1.2040576634e+00
1.2040900099e+00
1.2041152486e+00
1.2041347389e+00
1.2041496347e+00
1.2041608947e+00
1.2041693095e+00
1.2041755171e+00
1.2041800306e+00
1.2041832527e+00
1.2041854996e+00
1.2041870133e+00
1.2041879798e+00
1.2041885379e+00
1.2041887926e+00
1.2041888202e+00
1.2041886782e+00
1.2041884073e+00
1.2041880386e+00
1.2041875938e+00
1.2041870902e+00
1.2041865402e+00
1.2041859547e+00
1.2041853424e+00
1.2041847118e+00
1.2041840711e+00
1.2041834289e+00
1.2041827952e+00
1.2041821810e+00
1.2041816001e+00
1.2041810685e+00
1.2041806068e+00
1.2041802401e+00
1.2041800010e+00
1.2041799296e+00
1.2041800784e+00
1.2041805120e+00
1.2041813129e+00
1.2041825819e+00
1.2041844435e+00
1.2041870453e+00
1.2041905619e+00
1.2041951918e+00
1.2042011577e+00
1.2042086976e+00
1.2042180603e+00
1.2042294903e+00
1.2042432169e+00
1.2042594341e+00
1.2042782869e+00
1.2042998504e+00
1.2043241180e+00
1.2043509868e+00
1.2043802554e+00
1.2044116204e+00
1.2044446872e+00
1.2044789798e+00
1.2045139616e+00
1.2045490503e+00
1.2045836379e+00
1.2046170962e+00
1.2046487799e+00
1.2046780066e+00
1.2047040311e+00
1.2047259974e+00
1.2047428965e+00
1.2047535294e+00
1.2047565361e+00
1.2047505648e+00
1.2048519320e+00
1.1959790798e+00
1.1960790335e+00
1.1962195640e+00
1.1964272593e+00
1.1966967556e+00
1.1970212161e+00
1.1973926271e+00
1.1978021732e+00
1.1982405405e+00
1.1986983007e+00
1.1991661929e+00
1.1996354624e+00
1.2000980692e+00
1.2005469315e+00
1.2009760274e+00
1.2013805185e+00
1.2017567391e+00
1.2021022066e+00
1.2024155179e+00
1.2026962749e+00
1.2029449243e+00
1.2031626378e+00
1.2033511344e+00
1.2035125534e+00
1.2036492918e+00
1.2037638981e+00
1.2038589451e+00
1.2039369584e+00
1.2040003321e+00
1.2040512935e+00
1.2040918583e+00
1.2041238259e+00
1.2041487640e+00
1.2041680247e+00
1.2041827475e+00
1.2041938860e+00
1.2042022199e+00
1.2042083844e+00
1.2042128842e+00
1.2042161207e+00
1.2042184042e+00
1.2042199762e+00
1.2042210182e+00
1.2042216692e+00
1.2042220308e+00
1.2042221797e+00
1.2042221706e+00
1.2042220448e+00
1.2042218307e+00
1.2042215504e+00
1.2042212191e+00
1.2042208490e+00
1.2042204488e+00
1.2042200265e+00
1.2042195885e+00
1.2042191414e+00
1.2042186916e+00
1.2042182466e+00
1.2042178147e+00
1.2042174061e+00
1.2042170333e+00
1.2042167121e+00
1.2042164627e+00
1.2042163108e+00
1.2042162900e+00
1.2042164422e+00
1.2042168222e+00
1.2042174972e+00
1.2042185517e+00
1.2042200870e+00
1.2042222247e+00
1.2042251042e+00
1.2042288843e+00
1.2042337358e+00
1.2042398402e+00
1.2042473764e+00
1.2042565151e+00
1.2042674014e+00
1.2042801457e+00
1.2042948057e+00
1.2043113787e+00
1.2043297880e+00
1.2043498818e+00
1.2043714303e+00
1.2043941351e+00
1.2044176376e+00
1.2044415395e+00
1.2044654187e+00
1.2044888530e+00
1.2045114338e+00
1.2045327837e+00
1.2045525564e+00
1.2045704397e+00
1.2045861402e+00
1.2045993784e+00
1.2046098802e+00
1.2046174093e+00
1.2046218553e+00
1.2046234722e+00
1.2047418224e+00
1.1961180663e+00
1.1962195640e+00
1.1963587526e+00
1.1965635442e+00
1.1968288074e+00
1.1971478967e+00
1.1975130218e+00
1.1979155376e+00
1.1983463413e+00
1.1987961587e+00
1.1992559235e+00
1.1997170136e+00
1.2001715563e+00
1.2006125712e+00
1.2010341650e+00
1.2014315633e+00
1.2018011856e+00
1.2021405751e+00
1.2024483718e+00
1.2027241703e+00
1.2029684257e+00
1.2031822773e+00
1.2033674281e+00
1.2035259699e+00
1.2036602697e+00
1.2037728228e+00
1.2038661666e+00
1.2039427751e+00
1.2040050082e+00
1.2040550478e+00
1.2040948804e+00
1.2041262681e+00
1.2041507564e+00
1.2041696683e+00
1.2041841275e+00
1.2041950665e+00
1.2042032548e+00
1.2042093125e+00
1.2042137384e+00
1.2042169236e+00
1.2042191755e+00
1.2042207283e+00
1.2042217629e+00
1.2042224132e+00
1.2042227810e+00
1.2042229398e+00
1.2042229449e+00
1.2042228351e+00
1.2042226400e+00
1.2042223797e+00
1.2042220703e+00
1.2042217229e+00
1.2042213467e+00
1.2042209490e+00
1.2042205365e+00
1.2042201154e+00
1.2042196922e+00
1.2042192742e+00
1.2042188698e+00
1.2042184894e+00
1.2042181456e+00
1.2042178550e+00
1.2042176384e+00
1.2042175231e+00
1.2042175441e+00
1.2042177470e+00
1.2042181888e+00
1.2042189424e+00
1.2042200963e+00
1.2042217593e+00
1.2042240580e+00
1.2042271398e+00
1.2042311673e+00
1.2042363169e+00
1.2042427685e+00
1.2042506994e+00
1.2042602684e+00
1.2042716062e+00
1.2042847969e+00
1.2042998680e+00
1.2043167753e+00
1.2043353983e+00
1.2043555344e+00
1.2043769056e+00
1.2043991656e+00
1.2044219193e+00
1.2044447405e+00
1.2044672000e+00
1.2044888858e+00
1.2045094294e+00
1.2045285180e+00
1.2045459103e+00
1.2045614339e+00
1.2045749904e+00
1.2045865488e+00
1.2045961616e+00
1.2046039968e+00
1.2046104365e+00
1.2046162546e+00
1.2047420307e+00
1.1963258145e+00
1.1964272593e+00
1.1965635442e+00
1.1967635618e+00
1.1970223130e+00
1.1973333831e+00
1.1976891899e+00
1.1980813661e+00
1.1985010332e+00
1.1989392006e+00
1.1993870151e+00
1.1998361145e+00
1.2002788046e+00
1.2007083181e+00
1.2011188898e+00
1.2015058975e+00
1.2018658317e+00
1.2021963239e+00
1.2024960311e+00
1.2027645790e+00
1.2030023957e+00
1.2032106082e+00
1.2033908625e+00
1.2035452103e+00
1.2036759462e+00
1.2037855119e+00
1.2038763700e+00
1.2039509387e+00
1.2040115089e+00
1.2040602125e+00
1.2040989777e+00
1.2041295264e+00
1.2041533576e+00
1.2041717647e+00
1.2041858368e+00
1.2041964860e+00
1.2042044572e+00
1.2042103576e+00
1.2042146694e+00
1.2042177760e+00
1.2042199736e+00
1.2042214929e+00
1.2042225073e+00
1.2042231493e+00
1.2042235158e+00
1.2042236802e+00
1.2042236945e+00
1.2042235981e+00
1.2042234183e+00
1.2042231759e+00
1.2042228855e+00
1.2042225587e+00
1.2042222039e+00
1.2042218286e+00
1.2042214390e+00
1.2042210414e+00
1.2042206421e+00
1.2042202484e+00
1.2042198687e+00
1.2042195133e+00
1.2042191955e+00
1.2042189318e+00
1.2042187443e+00
1.2042186612e+00
1.2042187198e+00
1.2042189675e+00
1.2042194654e+00
1.2042202898e+00
1.2042215354e+00
1.2042233154e+00
1.2042257644e+00
1.2042290346e+00
1.2042332956e+00
1.2042387263e+00
1.2042455093e+00
1.2042538173e+00
1.2042638025e+00
1.2042755789e+00
1.2042892103e+00
1.2043046930e+00
1.2043219476e+00
1.2043408096e+00
1.2043610319e+00
1.2043822886e+00
1.2044041916e+00
1.2044263086e+00
1.2044481917e+00
1.2044694026e+00
1.2044895449e+00
1.2045082859e+00
1.2045253812e+00
1.2045406836e+00
1.2045541543e+00
1.2045658587e+00
1.2045759720e+00
1.2045847797e+00
1.2045927064e+00
1.2046003609e+00
1.2046086298e+00
1.2047375167e+00
1.1965965629e+00
1.1966967556e+00
1.1968288074e+00
1.1970223130e+00
1.1972724534e+00
1.1975730133e+00
1.1979167147e+00
1.1982954587e+00
1.1987007185e+00
1.1991237867e+00
1.1995561576e+00
1.1999897272e+00
1.2004171053e+00
1.2008317282e+00
1.2012280646e+00
1.2016016248e+00
1.2019490508e+00
1.2022680332e+00
1.2025573011e+00
1.2028164743e+00
1.2030459877e+00
1.2032469137e+00
1.2034208588e+00
1.2035697909e+00
1.2036959391e+00
1.2038016501e+00
1.2038893118e+00
1.2039612499e+00
1.2040196844e+00
1.2040666656e+00
1.2041040617e+00
1.2041335281e+00
1.2041565172e+00
1.2041742719e+00
1.2041878480e+00
1.2041981207e+00
1.2042058130e+00
1.2042115068e+00
1.2042156705e+00
1.2042186707e+00
1.2042207961e+00
1.2042222664e+00
1.2042232511e+00
1.2042238758e+00
1.2042242360e+00
1.2042244004e+00
1.2042244210e+00
1.2042243341e+00
1.2042241674e+00
1.2042239398e+00
1.2042236665e+00
1.2042233576e+00
1.2042230222e+00
1.2042226667e+00
1.2042222978e+00
1.2042219212e+00
1.2042215434e+00
1.2042211713e+00
1.2042208135e+00
1.2042204804e+00
1.2042201852e+00
1.2042199453e+00
1.2042197830e+00
1.2042197282e+00
1.2042198193e+00
1.2042201067e+00
1.2042206539e+00
1.2042215419e+00
1.2042228696e+00
1.2042247567e+00
1.2042273429e+00
1.2042307877e+00
1.2042352654e+00
1.2042409603e+00
1.2042480554e+00
1.2042567226e+00
1.2042671060e+00
1.2042793079e+00
1.2042933709e+00
1.2043092653e+00
1.2043268770e+00
1.2043460032e+00
1.2043663526e+00
1.2043875570e+00
1.2044091864e+00
1.2044307760e+00
1.2044518540e+00
1.2044719768e+00
1.2044907589e+00
1.2045079045e+00
1.2045232276e+00
1.2045366703e+00
1.2045483052e+00
1.2045583399e+00
1.2045671064e+00
1.2045750625e+00
1.2045827865e+00
1.2045909933e+00
1.2046005420e+00
1.2047300117e+00
1.1969231603e+00
1.1970212161e+00
1.1971478967e+00
1.1973333831e+00
1.1975730133e+00
1.1978608622e+00
1.1981899319e+00
1.1985525125e+00
1.1989404105e+00
1.1993453371e+00
1.1997591169e+00
1.2001740375e+00
1.2005829915e+00
1.2009797380e+00
1.2013589512e+00
1.2017163710e+00
1.2020487562e+00
1.2023539279e+00
1.2026306472e+00
1.2028785762e+00
1.2030981122e+00
1.2032903027e+00
1.2034566698e+00
1.2035991132e+00
1.2037197535e+00
1.2038208491e+00
1.2039046748e+00
1.2039734659e+00
1.2040293379e+00
1.2040742606e+00
1.2041100138e+00
1.2041381878e+00
1.2041601659e+00
1.2041771421e+00
1.2041901213e+00
1.2041999450e+00
1.2042073001e+00
1.2042127468e+00
1.2042167294e+00
1.2042196017e+00
1.2042216363e+00
1.2042230462e+00
1.2042239906e+00
1.2042245921e+00
1.2042249395e+00
1.2042251006e+00
1.2042251232e+00
1.2042250436e+00
1.2042248868e+00
1.2042246724e+00
1.2042244133e+00
1.2042241207e+00
1.2042238021e+00
1.2042234646e+00
1.2042231140e+00
1.2042227562e+00
1.2042223973e+00
1.2042220444e+00
1.2042217059e+00
1.2042213921e+00
1.2042211166e+00
1.2042208970e+00
1.2042207565e+00
1.2042207256e+00
1.2042208447e+00
1.2042211657e+00
1.2042217560e+00
1.2042226993e+00
1.2042241000e+00
1.2042260823e+00
1.2042287928e+00
1.2042323963e+00
1.2042370737e+00
1.2042430128e+00
1.2042504001e+00
1.2042594054e+00
1.2042701681e+00
1.2042827784e+00
1.2042972623e+00
1.2043135649e+00
1.2043315418e+00
1.2043509531e+00
1.2043714684e+00
1.2043926772e+00
1.2044141120e+00
1.2044352743e+00
1.2044556712e+00
1.2044748499e+00
1.2044924360e+00
1.2045081625e+00
1.2045218979e+00
1.2045336579e+00
1.2045436147e+00
1.2045520883e+00
1.2045595394e+00
1.2045665473e+00
1.2045737961e+00
1.2045820481e+00
1.2045921174e+00
1.2047206688e+00
1.1972973868e+00
1.1973926271e+00
1.1975130218e+00
1.1976891899e+00
1.1979167147e+00
1.1981899319e+00
1.1985022354e+00
1.1988462718e+00
1.1992143114e+00
1.1995984510e+00
1.1999909811e+00
1.2003845459e+00
1.2007724481e+00
1.2011487305e+00
1.2015083827e+00
1.2018473312e+00
1.2021625380e+00
1.2024519091e+00
1.2027143001e+00
1.2029493684e+00
1.2031575159e+00
1.2033397182e+00
1.2034974389e+00
1.2036324654e+00
1.2037468244e+00
1.2038426460e+00
1.2039220996e+00
1.2039872955e+00
1.2040402490e+00
1.2040828199e+00
1.2041167035e+00
1.2041434007e+00
1.2041642291e+00
1.2041803151e+00
1.2041926161e+00
1.2042019249e+00
1.2042088969e+00
1.2042140590e+00
1.2042178356e+00
1.2042205586e+00
1.2042224894e+00
1.2042238267e+00
1.2042247241e+00
1.2042252950e+00
1.2042256260e+00
1.2042257792e+00
1.2042258016e+00
1.2042257259e+00
1.2042255775e+00
1.2042253733e+00
1.2042251271e+00
1.2042248481e+00
1.2042245447e+00
1.2042242228e+00
1.2042238885e+00
1.2042235472e+00
1.2042232051e+00
1.2042228689e+00
1.2042225470e+00
1.2042222499e+00
1.2042219911e+00
1.2042217886e+00
1.2042216661e+00
1.2042216552e+00
1.2042217972e+00
1.2042221466e+00
1.2042227726e+00
1.2042237634e+00
1.2042252267e+00
1.2042272927e+00
1.2042301128e+00
1.2042338588e+00
1.2042387164e+00
1.2042448792e+00
1.2042525357e+00
1.2042618564e+00
1.2042729759e+00
1.2042859757e+00
1.2043008658e+00
1.2043175701e+00
1.2043359157e+00
1.2043556295e+00
1.2043763433e+00
1.2043976084e+00
1.2044189192e+00
1.2044397464e+00
1.2044595732e+00
1.2044779380e+00
1.2044944709e+00
1.2045089313e+00
1.2045212304e+00
1.2045314503e+00
1.2045398429e+00
1.2045468263e+00
1.2045529605e+00
1.2045589240e+00
1.2045654737e+00
1.2045734079e+00
1.2045835041e+00
1.2047102370e+00
1.1977102394e+00
1.1978021732e+00
1.1979155376e+00
1.1980813661e+00
1.1982954587e+00
1.1985525125e+00
1.1988462718e+00
1.1991698606e+00
1.1995159666e+00
1.1998772041e+00
1.2002462799e+00
1.2006163250e+00
1.2009810006e+00
1.2013347510e+00
1.2016728279e+00
1.2019914426e+00
1.2022877071e+00
1.2025596881e+00
1.2028062837e+00
1.2030272010e+00
1.2032227971e+00
1.2033940126e+00
1.2035422065e+00
1.2036690774e+00
1.2037765172e+00
1.2038665423e+00
1.2039411809e+00
1.2040024274e+00
1.2040521670e+00
1.2040921563e+00
1.2041239809e+00
1.2041490582e+00
1.2041686200e+00
1.2041837301e+00
1.2041952830e+00
1.2042040280e+00
1.2042105763e+00
1.2042154267e+00
1.2042189741e+00
1.2042215335e+00
1.2042233472e+00
1.2042246045e+00
1.2042254470e+00
1.2042259835e+00
1.2042262932e+00
1.2042264362e+00
1.2042264548e+00
1.2042263816e+00
1.2042262387e+00
1.2042260434e+00
1.2042258075e+00
1.2042255409e+00
1.2042252503e+00
1.2042249424e+00
1.2042246221e+00
1.2042242954e+00
1.2042239677e+00
1.2042236459e+00
1.2042233383e+00
1.2042230552e+00
1.2042228103e+00
1.2042226217e+00
1.2042225137e+00
1.2042225184e+00
1.2042226787e+00
1.2042230504e+00
1.2042237056e+00
1.2042247349e+00
1.2042262507e+00
1.2042283874e+00
1.2042313025e+00
1.2042351729e+00
1.2042401908e+00
1.2042465541e+00
1.2042544555e+00
1.2042640658e+00
1.2042755173e+00
1.2042888836e+00
1.2043041620e+00
1.2043212569e+00
1.2043399703e+00
1.2043599982e+00
1.2043809377e+00
1.2044023031e+00
1.2044235533e+00
1.2044441268e+00
1.2044634837e+00
1.2044811489e+00
1.2044967557e+00
1.2045100806e+00
1.2045210732e+00
1.2045298675e+00
1.2045367875e+00
1.2045423295e+00
1.2045471413e+00
1.2045519791e+00
1.2045576658e+00
1.2045650293e+00
1.2045748372e+00
1.2046992156e+00
1.1981522824e+00
1.1982405405e+00
1.1983463413e+00
1.1985010332e+00
1.1987007185e+00
1.1989404105e+00
1.1992143114e+00
1.1995159666e+00
1.1998386037e+00
1.2001752925e+00
1.2005192832e+00
1.2008641288e+00
1.2012039694e+00
1.2015335861e+00
1.2018485984e+00
1.2021454398e+00
1.2024214585e+00
1.2026748230e+00
1.2029045398e+00
1.2031103119e+00
1.2032924991e+00
1.2034519584e+00
1.2035899777e+00
1.2037081241e+00
1.2038081768e+00
1.2038920021e+00
1.2039615022e+00
1.2040185252e+00
1.2040648369e+00
1.2041020655e+00
1.2041316954e+00
1.2041550400e+00
1.2041732527e+00
1.2041873185e+00
1.2041980752e+00
1.2042062159e+00
1.2042123137e+00
1.2042168290e+00
1.2042201329e+00
1.2042225151e+00
1.2042242041e+00
1.2042253734e+00
1.2042261572e+00
1.2042266542e+00
1.2042269404e+00
1.2042270697e+00
1.2042270833e+00
1.2042270097e+00
1.2042268711e+00
1.2042266823e+00
1.2042264556e+00
1.2042261990e+00
1.2042259199e+00
1.2042256236e+00
1.2042253158e+00
1.2042250013e+00
1.2042246861e+00
1.2042243765e+00
1.2042240808e+00
1.2042238091e+00
1.2042235753e+00
1.2042233976e+00
1.2042233005e+00
1.2042233169e+00
1.2042234905e+00
1.2042238788e+00
1.2042245557e+00
1.2042256150e+00
1.2042271723e+00
1.2042293669e+00
1.2042323609e+00
1.2042363372e+00
1.2042414934e+00
1.2042480332e+00
1.2042561525e+00
1.2042660246e+00
1.2042777799e+00
1.2042914866e+00
1.2043071309e+00
1.2043246008e+00
1.2043436757e+00
1.2043640235e+00
1.2043852089e+00
1.2044067114e+00
1.2044279551e+00
1.2044483471e+00
1.2044673219e+00
1.2044843900e+00
1.2044991815e+00
1.2045114872e+00
1.2045212840e+00
1.2045287533e+00
1.2045342764e+00
1.2045384217e+00
1.2045419090e+00
1.2045455684e+00
1.2045502791e+00
1.2045569085e+00
1.2045662290e+00
1.2046879627e+00
1.1986139526e+00
1.1986983007e+00
1.1987961587e+00
1.1989392006e+00
1.1991237867e+00
1.1993453371e+00
1.1995984510e+00
1.1998772041e+00
1.2001752925e+00
1.2004863596e+00
1.2008041232e+00
1.2011226755e+00
1.2014365592e+00
1.2017410000e+00
1.2020319125e+00
1.2023060448e+00
1.2025609142e+00
1.2027948660e+00
1.2030069550e+00
1.2031969376e+00
1.2033651240e+00
1.2035123302e+00
1.2036397280e+00
1.2037487838e+00
1.2038411265e+00
1.2039184942e+00
1.2039826321e+00
1.2040352578e+00
1.2040779927e+00
1.2041123484e+00
1.2041396882e+00
1.2041612310e+00
1.2041780355e+00
1.2041910161e+00
1.2042009411e+00
1.2042084544e+00
1.2042140807e+00
1.2042182484e+00
1.2042212963e+00
1.2042234949e+00
1.2042250519e+00
1.2042261299e+00
1.2042268500e+00
1.2042273060e+00
1.2042275652e+00
1.2042276797e+00
1.2042276855e+00
1.2042276107e+00
1.2042274740e+00
1.2042272909e+00
1.2042270710e+00
1.2042268233e+00
1.2042265534e+00
1.2042262675e+00
1.2042259699e+00
1.2042256662e+00
1.2042253612e+00
1.2042250617e+00
1.2042247755e+00
1.2042245129e+00
1.2042242875e+00
1.2042241176e+00
1.2042240280e+00
1.2042240520e+00
1.2042242341e+00
1.2042246330e+00
1.2042253246e+00
1.2042264048e+00
1.2042279927e+00
1.2042302313e+00
1.2042332879e+00
1.2042373504e+00
1.2042426222e+00
1.2042493121e+00
1.2042576208e+00
1.2042677240e+00
1.2042797520e+00
1.2042937693e+00
1.2043097530e+00
1.2043275775e+00
1.2043470019e+00
1.2043676691e+00
1.2043891136e+00
1.2044107821e+00
1.2044320650e+00
1.2044523375e+00
1.2044710084e+00
1.2044875696e+00
1.2045016461e+00
1.2045130348e+00
1.2045217370e+00
1.2045279701e+00
1.2045321689e+00
1.2045349614e+00
1.2045371372e+00
1.2045395906e+00
1.2045432618e+00
1.2045490589e+00
1.2045577790e+00
1.2046767512e+00
1.1990859049e+00
1.1991661929e+00
1.1992559235e+00
1.1993870151e+00
1.1995561576e+00
1.1997591169e+00
1.1999909811e+00
1.2002462799e+00
1.2005192832e+00
1.2008041232e+00
1.2010950941e+00
1.2013867408e+00
1.2016741138e+00
1.2019528001e+00
1.2022191036e+00
1.2024700107e+00
1.2027032881e+00
1.2029173907e+00
1.2031114866e+00
1.2032853284e+00
1.2034392271e+00
1.2035739103e+00
1.2036904718e+00
1.2037902385e+00
1.2038747177e+00
1.2039454879e+00
1.2040041589e+00
1.2040522926e+00
1.2040913824e+00
1.2041228036e+00
1.2041478108e+00
1.2041675129e+00
1.2041828841e+00
1.2041947556e+00
1.2042038347e+00
1.2042107061e+00
1.2042158534e+00
1.2042196646e+00
1.2042224529e+00
1.2042244621e+00
1.2042258852e+00
1.2042268679e+00
1.2042275236e+00
1.2042279354e+00
1.2042281673e+00
1.2042282644e+00
1.2042282619e+00
1.2042281835e+00
1.2042280482e+00
1.2042278684e+00
1.2042276546e+00
1.2042274136e+00
1.2042271520e+00
1.2042268743e+00
1.2042265856e+00
1.2042262903e+00
1.2042259939e+00
1.2042257023e+00
1.2042254236e+00
1.2042251675e+00
1.2042249479e+00
1.2042247829e+00
1.2042246974e+00
1.2042247250e+00
1.2042249109e+00
1.2042253146e+00
1.2042260133e+00
1.2042271054e+00
1.2042287125e+00
1.2042309814e+00
1.2042340833e+00
1.2042382117e+00
1.2042435750e+00
1.2042503876e+00
1.2042588551e+00
1.2042691564e+00
1.2042814232e+00
1.2042957174e+00
1.2043120102e+00
1.2043301635e+00
1.2043499201e+00
1.2043708996e+00
1.2043926096e+00
1.2044144652e+00
1.2044358244e+00
1.2044560310e+00
1.2044744661e+00
1.2044906020e+00
1.2045040529e+00
1.2045146198e+00
1.2045223195e+00
1.2045274029e+00
1.2045303477e+00
1.2045318404e+00
1.2045327309e+00
1.2045339803e+00
1.2045365862e+00
1.2045415080e+00
1.2045495747e+00
1.2046658048e+00
1.1995592784e+00
1.1996354624e+00
1.1997170136e+00
1.1998361145e+00
1.1999897272e+00
1.2001740375e+00
1.2003845459e+00
1.2006163250e+00
1.2008641288e+00
1.2011226755e+00
1.2013867408e+00
1.2016514202e+00
1.2019121787e+00
1.2021650563e+00
1.2024066608e+00
1.2026342986e+00
1.2028459104e+00
1.2030401298e+00
1.2032161756e+00
1.2033738524e+00
1.2035134212e+00
1.2036355656e+00
1.2037412610e+00
1.2038317294e+00
1.2039083249e+00
1.2039724932e+00
1.2040256840e+00
1.2040693246e+00
1.2041047608e+00
1.2041332481e+00
1.2041559171e+00
1.2041737799e+00
1.2041877140e+00
1.2041984781e+00
1.2042067087e+00
1.2042129398e+00
1.2042176057e+00
1.2042210618e+00
1.2042235882e+00
1.2042254091e+00
1.2042266963e+00
1.2042275844e+00
1.2042281737e+00
1.2042285416e+00
1.2042287440e+00
1.2042288239e+00
1.2042288110e+00
1.2042287288e+00
1.2042285928e+00
1.2042284158e+00
1.2042282060e+00
1.2042279710e+00
1.2042277155e+00
1.2042274448e+00
1.2042271629e+00
1.2042268747e+00
1.2042265847e+00
1.2042262993e+00
1.2042260257e+00
1.2042257741e+00
1.2042255576e+00
1.2042253947e+00
1.2042253099e+00
1.2042253372e+00
1.2042255220e+00
1.2042259246e+00
1.2042266233e+00
1.2042277181e+00
1.2042293330e+00
1.2042316178e+00
1.2042347478e+00
1.2042389208e+00