# vtk DataFile Version 2.0
Blank
ASCII
DATASET STRUCTURED_GRID
DIMENSIONS 101 101 2
POINTS 20402 float
0.0000000000e+00 0.0000000000e+00 0.0000000000e+00
1.0000000000e-02 0.0000000000e+00 0.0000000000e+00
2.0000000000e-02 0.0000000000e+00 0.0000000000e+00
3.0000000000e-02 0.0000000000e+00 0.0000000000e+00
4.0000000000e-02 0.0000000000e+00 0.0000000000e+00
5.0000000000e-02 0.0000000000e+00 0.0000000000e+00
6.0000000000e-02 0.0000000000e+00 0.0000000000e+00
7.0000000000e-02 0.0000000000e+00 0.0000000000e+00
8.0000000000e-02 0.0000000000e+00 0.0000000000e+00
9.0000000000e-02 0.0000000000e+00 0.0000000000e+00
1.0000000000e-01 0.0000000000e+00 0.0000000000e+00
1.1000000000e-01 0.0000000000e+00 0.0000000000e+00
1.2000000000e-01 0.0000000000e+00 0.0000000000e+00
1.3000000000e-01 0.0000000000e+00 0.0000000000e+00
1.4000000000e-01 0.0000000000e+00 0.0000000000e+00
1.5000000000e-01 0.0000000000e+00 0.0000000000e+00
1.6000000000e-01 0.0000000000e+00 0.0000000000e+00
1.7000000000e-01 0.0000000000e+00 0.0000000000e+00
1.8000000000e-01 0.0000000000e+00 0.0000000000e+00
1.9000000000e-01 0.0000000000e+00 0.0000000000e+00
2.0000000000e-01 0.0000000000e+00 0.0000000000e+00
2.1000000000e-01 0.0000000000e+00 0.0000000000e+00
2.2000000000e-01 0.0000000000e+00 0.0000000000e+00
2.3000000000e-01 0.0000000000e+00 0.0000000000e+00
2.4000000000e-01 0.0000000000e+00 0.0000000000e+00
2.5000000000e-01 0.0000000000e+00 0.0000000000e+00
2.6000000000e-01 0.0000000000e+00 0.0000000000e+00
2.7000000000e-01 0.0000000000e+00 0.0000000000e+00
2.8000000000e-01 0.0000000000e+00 0.0000000000e+00
2.9000000000e-01 0.0000000000e+00 0.0000000000e+00
3.0000000000e-01 0.0000000000e+00 0.0000000000e+00
3.1000000000e-01 0.0000000000e+00 0.0000000000e+00
3.2000000000e-01 0.0000000000e+00 0.0000000000e+00
3.3000000000e-01 0.0000000000e+00 0.0000000000e+00
3.4000000000e-01 0.0000000000e+00 0.0000000000e+00
3.5000000000e-01 0.0000000000e+00 0.0000000000e+00
3.6000000000e-01 0.0000000000e+00 0.0000000000e+00
3.7000000000e-01 0.0000000000e+00 0.0000000000e+00
3.8000000000e-01 0.0000000000e+00 0.0000000000e+00
3.9000000000e-01 0.0000000000e+00 0.0000000000e+00
4.0000000000e-01 0.0000000000e+00 0.0000000000e+00
4.1000000000e-01 0.0000000000e+00 0.0000000000e+00
4.2000000000e-01 0.0000000000e+00 0.0000000000e+00
4.3000000000e-01 0.0000000000e+00 0.0000000000e+00
4.4000000000e-01 0.0000000000e+00 0.0000000000e+00
4.5000000000e-01 0.0000000000e+00 0.0000000000e+00
4.6000000000e-01 0.0000000000e+00 0.0000000000e+00
4.7000000000e-01 0.0000000000e+00 0.0000000000e+00
4.8000000000e-01 0.0000000000e+00 0.0000000000e+00
4.9000000000e-01 0.0000000000e+00 0.0000000000e+00
5.0000000000e-01 0.0000000000e+00 0.0000000000e+00
5.1000000000e-01 0.0000000000e+00 0.0000000000e+00
5.2000000000e-01 0.0000000000e+00 0.0000000000e+00
5.3000000000e-01 0.0000000000e+00 0.0000000000e+00
5.4000000000e-01 0.0000000000e+00 0.0000000000e+00
5.5000000000e-01 0.0000000000e+00 0.0000000000e+00
5.6000000000e-01 0.0000000000e+00 0.0000000000e+00
5.7000000000e-01 0.0000000000e+00 0.0000000000e+00
5.8000000000e-01 0.0000000000e+00 0.0000000000e+00
5.9000000000e-01 0.0000000000e+00 0.0000000000e+00
6.0000000000e-01 0.0000000000e+00 0.0000000000e+00
6.1000000000e-01 0.0000000000e+00 0.0000000000e+00
6.2000000000e-01 0.0000000000e+00 0.0000000000e+00
6.3000000000e-01 0.0000000000e+00 0.0000000000e+00
6.4000000000e-01 0.0000000000e+00 0.0000000000e+00
6.5000000000e-01 0.0000000000e+00 0.0000000000e+00
6.6000000000e-01 0.0000000000e+00 0.0000000000e+00
6.7000000000e-01 0.0000000000e+00 0.0000000000e+00
6.8000000000e-01 0.0000000000e+00 0.0000000000e+00
6.9000000000e-01 0.0000000000e+00 0.0000000000e+00
7.0000000000e-01 0.0000000000e+00 0.0000000000e+00
7.1000000000e-01 0.0000000000e+00 0.0000000000e+00
7.2000000000e-01 0.0000000000e+00 0.0000000000e+00
7.3000000000e-01 0.0000000000e+00 0.0000000000e+00
7.4000000000e-01 0.0000000000e+00 0.0000000000e+00
7.5000000000e-01 0.0000000000e+00 0.0000000000e+00
7.6000000000e-01 0.0000000000e+00 0.0000000000e+00
7.7000000000e-01 0.0000000000e+00 0.0000000000e+00
7.8000000000e-01 0.0000000000e+00 0.0000000000e+00
7.9000000000e-01 0.0000000000e+00 0.0000000000e+00
8.0000000000e-01 0.0000000000e+00 0.0000000000e+00
8.1000000000e-01 0.0000000000e+00 0.0000000000e+00
8.2000000000e-01 0.0000000000e+00 0.0000000000e+00
8.3000000000e-01 0.0000000000e+00 0.0000000000e+00
8.4000000000e-01 0.0000000000e+00 0.0000000000e+00
8.5000000000e-01 0.0000000000e+00 0.0000000000e+00
8.6000000000e-01 0.0000000000e+00 0.0000000000e+00
8.7000000000e-01 0.0000000000e+00 0.0000000000e+00
8.8000000000e-01 0.0000000000e+00 0.0000000000e+00
8.9000000000e-01 0.0000000000e+00 0.0000000000e+00
9.0000000000e-01 0.0000000000e+00 0.0000000000e+00
9.1000000000e-01 0.0000000000e+00 0.0000000000e+00
9.2000000000e-01 0.0000000000e+00 0.0000000000e+00
9.3000000000e-01 0.0000000000e+00 0.0000000000e+00
9.4000000000e-01 0.0000000000e+00 0.0000000000e+00
9.5000000000e-01 0.0000000000e+00 0.0000000000e+00
9.6000000000e-01 0.0000000000e+00 0.0000000000e+00
9.7000000000e-01 0.0000000000e+00 0.0000000000e+00
9.8000000000e-01 0.0000000000e+00 0.0000000000e+00
9.9000000000e-01 0.0000000000e+00 0.0000000000e+00
1.0000000000e+00 0.0000000000e+00 0.0000000000e+00
0.0000000000e+00 1.0000000000e-02 0.0000000000e+00
1.0000000000e-02 1.0000000000e-02 0.0000000000e+00
2.0000000000e-02 1.0000000000e-02 0.0000000000e+00
3.0000000000e-02 1.0000000000e-02 0.0000000000e+00
4.0000000000e-02 1.0000000000e-02 0.0000000000e+00
5.0000000000e-02 1.0000000000e-02 0.0000000000e+00
6.0000000000e-02 1.0000000000e-02 0.0000000000e+00
7.0000000000e-02 1.0000000000e-02 0.0000000000e+00
8.0000000000e-02 1.0000000000e-02 0.0000000000e+00
9.0000000000e-02 1.0000000000e-02 0.0000000000e+00
1.0000000000e-01 1.0000000000e-02 0.0000000000e+00
1.1000000000e-01 1.0000000000e-02 0.0000000000e+00
1.2000000000e-01 1.0000000000e-02 0.0000000000e+00
1.3000000000e-01 1.0000000000e-02 0.0000000000e+00
1.4000000000e-01 1.0000000000e-02 0.0000000000e+00
1.5000000000e-01 1.0000000000e-02 0.0000000000e+00
1.6000000000e-01 1.0000000000e-02 0.0000000000e+00
1.7000000000e-01 1.0000000000e-02 0.0000000000e+00
1.8000000000e-01 1.0000000000e-02 0.0000000000e+00
1.9000000000e-01 1.0000000000e-02 0.0000000000e+00
2.0000000000e-01 1.0000000000e-02 0.0000000000e+00
2.1000000000e-01 1.0000000000e-02 0.0000000000e+00
2.2000000000e-01 1.0000000000e-02 0.0000000000e+00
2.3000000000e-01 1.0000000000e-02 0.0000000000e+00
2.4000000000e-01 1.0000000000e-02 0.0000000000e+00
2.5000000000e-01 1.0000000000e-02 0.0000000000e+00
2.6000000000e-01 1.0000000000e-02 0.0000000000e+00
2.7000000000e-01 1.0000000000e-02 0.0000000000e+00
2.8000000000e-01 1.0000000000e-02 0.0000000000e+00
2.9000000000e-01 1.0000000000e-02 0.0000000000e+00
3.0000000000e-01 1.0000000000e-02 0.0000000000e+00
3.1000000000e-01 1.0000000000e-02 0.0000000000e+00
3.2000000000e-01 1.0000000000e-02 0.0000000000e+00
3.3000000000e-01 1.0000000000e-02 0.0000000000e+00
3.4000000000e-01 1.0000000000e-02 0.0000000000e+00
3.5000000000e-01 1.0000000000e-02 0.0000000000e+00
3.6000000000e-01 1.0000000000e-02 0.0000000000e+00
3.7000000000e-01 1.0000000000e-02 0.0000000000e+00
3.8000000000e-01 1.0000000000e-02 0.0000000000e+00
3.9000000000e-01 1.0000000000e-02 0.0000000000e+00
4.0000000000e-01 1.0000000000e-02 0.0000000000e+00
4.1000000000e-01 1.0000000000e-02 0.0000000000e+00
4.2000000000e-01 1.0000000000e-02 0.0000000000e+00
4.3000000000e-01 1.0000000000e-02 0.0000000000e+00
4.4000000000e-01 1.0000000000e-02 0.0000000000e+00
4.5000000000e-01 1.0000000000e-02 0.0000000000e+00
4.6000000000e-01 1.0000000000e-02 0.0000000000e+00
4.7000000000e-01 1.0000000000e-02 0.0000000000e+00
4.8000000000e-01 1.0000000000e-02 0.0000000000e+00
4.9000000000e-01 1.0000000000e-02 0.0000000000e+00
5.0000000000e-01 1.0000000000e-02 0.0000000000e+00
5.1000000000e-01 1.0000000000e-02 0.0000000000e+00
5.2000000000e-01 1.0000000000e-02 0.0000000000e+00
5.3000000000e-01 1.0000000000e-02 0.0000000000e+00
5.4000000000e-01 1.0000000000e-02 0.0000000000e+00
5.5000000000e-01 1.0000000000e-02 0.0000000000e+00
5.6000000000e-01 1.0000000000e-02 0.0000000000e+00
5.7000000000e-01 1.0000000000e-02 0.0000000000e+00
5.8000000000e-01 1.0000000000e-02 0.0000000000e+00
5.9000000000e-01 1.0000000000e-02 0.0000000000e+00
6.0000000000e-01 1.0000000000e-02 0.0000000000e+00
6.1000000000e-01 1.0000000000e-02 0.0000000000e+00
6.2000000000e-01 1.0000000000e-02 0.0000000000e+00
6.3000000000e-01 1.0000000000e-02 0.0000000000e+00
6.4000000000e-01 1.0000000000e-02 0.0000000000e+00
6.5000000000e-01 1.0000000000e-02 0.0000000000e+00
6.6000000000e-01 1.0000000000e-02 0.0000000000e+00
6.7000000000e-01 1.0000000000e-02 0.0000000000e+00
6.8000000000e-01 1.0000000000e-02 0.0000000000e+00
6.9000000000e-01 1.0000000000e-02 0.0000000000e+00
7.0000000000e-01 1.0000000000e-02 0.0000000000e+00
7.1000000000e-01 1.0000000000e-02 0.0000000000e+00
7.2000000000e-01 1.0000000000e-02 0.0000000000e+00
7.3000000000e-01 1.0000000000e-02 0.0000000000e+00
7.4000000000e-01 1.0000000000e-02 0.0000000000e+00
7.5000000000e-01 1.0000000000e-02 0.0000000000e+00
7.6000000000e-01 1.0000000000e-02 0.0000000000e+00
7.7000000000e-01 1.0000000000e-02 0.0000000000e+00
7.8000000000e-01 1.0000000000e-02 0.0000000000e+00
7.9000000000e-01 1.0000000000e-02 0.0000000000e+00
8.0000000000e-01 1.0000000000e-02 0.0000000000e+00
8.1000000000e-01 1.0000000000e-02 0.0000000000e+00
8.2000000000e-01 1.0000000000e-02 0.0000000000e+00
8.3000000000e-01 1.0000000000e-02 0.0000000000e+00
8.4000000000e-01 1.0000000000e-02 0.0000000000e+00
8.5000000000e-01 1.0000000000e-02 0.0000000000e+00
8.6000000000e-01 1.0000000000e-02 0.0000000000e+00
8.7000000000e-01 1.0000000000e-02 0.0000000000e+00
8.8000000000e-01 1.0000000000e-02 0.0000000000e+00
8.9000000000e-01 1.0000000000e-02 0.0000000000e+00
9.0000000000e-01 1.0000000000e-02 0.0000000000e+00
9.1000000000e-01 1.0000000000e-02 0.0000000000e+00
9.2000000000e-01 1.0000000000e-02 0.0000000000e+00
[...]
CELL_DATA 10000

SCALARS massDensity float
LOOKUP_TABLE default
1.1821083325e+00
1.1827484289e+00
1.1836362376e+00
1.1849170828e+00
1.1865080821e+00
1.1883131254e+00
1.1902324685e+00
1.1921705813e+00
1.1940439396e+00
1.1957855600e+00
1.1973483155e+00
1.1987047708e+00
1.1998459540e+00
1.2007777795e+00
1.2015174513e+00
1.2020890628e+00
1.2025201426e+00
1.2028384432e+00
1.2030699912e+00
1.2032376665e+00
1.2033607704e+00
1.2034549350e+00
1.2035325496e+00
1.2036032577e+00
1.2036745785e+00
1.2037524487e+00
1.2038416663e+00
1.2039462271e+00
1.2040694465e+00
1.2042139997e+00
1.2043816694e+00
1.2045730582e+00
1.2047869852e+00
1.2050200113e+00
1.2052657871e+00
1.2055148890e+00
1.2057547897e+00
1.2059707552e+00
1.2061470323e+00
1.2062690341e+00
1.2063253318e+00
1.2063100389e+00
1.2062239173e+00
1.2060750679e+00
1.2058775964e+00
1.2056499078e+00
1.2054115096e+00
1.2051805478e+00
1.2049711746e+00
1.2047925942e+00
1.2046486340e+00
1.2045387329e+00
1.2044590983e+00
1.2044042932e+00
1.2043684260e+00
1.2043461038e+00
1.2043328845e+00
1.2043254376e+00
1.2043214463e+00
1.2043194120e+00
1.2043184263e+00
1.2043179725e+00
1.2043177741e+00
1.2043176918e+00
1.2043176594e+00
1.2043176473e+00
1.2043176430e+00
1.2043176416e+00
1.2043176412e+00
1.2043176411e+00
1.2043176410e+00
1.2043176410e+00
1.2043176410e+00
1.2043176410e+00
1.2043176410e+00
1.2043176410e+00
1.2043176410e+00
1.2043176410e+00
1.2043176410e+00
1.2043176410e+00
1.2043176410e+00
1.2043176410e+00
1.2043176410e+00
1.2043176410e+00
1.2043176410e+00
1.2043176410e+00
1.2043176410e+00
1.2043176410e+00
1.2043176410e+00
1.2043176410e+00
1.2043176410e+00
1.2043176410e+00
1.2043176410e+00
1.2043176410e+00
1.2043176410e+00
1.2043176410e+00
1.2043176410e+00
1.2043176410e+00
1.2043176410e+00
1.2043176410e+00
1.1827484289e+00
1.1834147067e+00
1.1843011090e+00
1.1855653103e+00
1.1871284991e+00
1.1888986937e+00
1.1907787762e+00
1.1926762015e+00
1.1945090709e+00
1.1962123863e+00
1.1977397909e+00
1.1990648715e+00
1.2001786828e+00
1.2010873461e+00
1.2018075519e+00
1.2023630415e+00
1.2027805368e+00
1.2030871469e+00
1.2033079989e+00
1.2034652131e+00
1.2035771899e+00
1.2036587480e+00
1.2037213691e+00
1.2037738087e+00
1.2038226362e+00
1.2038728236e+00
1.2039282256e+00
1.2039919526e+00
1.2040666807e+00
1.2041547653e+00
1.2042583326e+00
1.2043790692e+00
1.2045180087e+00
1.2046749442e+00
1.2048479496e+00
1.2050326409e+00
1.2052219042e+00
1.2054057091e+00
1.2055718618e+00
1.2057070392e+00
1.2057988559e+00
1.2058376851e+00
1.2058189135e+00
1.2057437768e+00
1.2056199277e+00
1.2054598619e+00
1.2052793520e+00
1.2050943560e+00
1.2049191079e+00
1.2047639118e+00
1.2046348029e+00
1.2045334032e+00
1.2044581033e+00
1.2044050868e+00
1.2043696862e+00
1.2043472323e+00
1.2043337075e+00
1.2043259645e+00
1.2043217533e+00
1.2043195770e+00
1.2043185088e+00
1.2043180111e+00
1.2043177910e+00
1.2043176987e+00
1.2043176621e+00
1.2043176483e+00
1.2043176434e+00
1.2043176417e+00
1.2043176412e+00
1.2043176411e+00
1.2043176410e+00
1.2043176410e+00
1.2043176410e+00
1.2043176410e+00
1.2043176410e+00
1.2043176410e+00
1.2043176410e+00
1.2043176410e+00
1.2043176410e+00
1.2043176410e+00
1.2043176410e+00
1.2043176410e+00
1.2043176410e+00
1.2043176410e+00
1.2043176410e+00
1.2043176410e+00
1.2043176410e+00
1.2043176410e+00
1.2043176410e+00
1.2043176410e+00
1.2043176410e+00
1.2043176410e+00
1.2043176410e+00
1.2043176410e+00
1.2043176410e+00
1.2043176410e+00
1.2043176410e+00
1.2043176410e+00
1.2043176410e+00
1.2043176410e+00
1.1836362376e+00
1.1843011090e+00
1.1851570889e+00
1.1863714770e+00
1.1878702791e+00
1.1895654823e+00
1.1913652055e+00
1.1931805018e+00
1.1949338041e+00
1.1965624750e+00
1.1980228041e+00
1.1992891734e+00
1.2003535273e+00
1.2012214781e+00
1.2019093423e+00
1.2024396462e+00
1.2028381536e+00
1.2031306310e+00
1.2033411906e+00
1.2034908276e+00
1.2035971210e+00
1.2036740695e+00
1.2037325519e+00
1.2037807434e+00
1.2038247486e+00
1.2038691056e+00
1.2039172931e+00
1.2039721388e+00
1.2040361325e+00
1.2041116958e+00
1.2042012560e+00
1.2043072619e+00
1.2044318548e+00
1.2045764428e+00
1.2047408763e+00
1.2049226857e+00
1.2051162119e+00
1.2053123093e+00
1.2054984815e+00
1.2056601044e+00
1.2057821824e+00
1.2058520075e+00
1.2058613802e+00
1.2058087917e+00
1.2056996882e+00
1.2055461634e+00
1.2053643355e+00
1.2051720669e+00
1.2049854980e+00
1.2048173770e+00
1.2046754029e+00
1.2045626414e+00
1.2044780369e+00
1.2044180086e+00
1.2043776298e+00
1.2043518794e+00
1.2043362871e+00
1.2043273267e+00
1.2043224359e+00
1.2043199019e+00
1.2043186555e+00
1.2043180739e+00
1.2043178165e+00
1.2043177085e+00
1.2043176656e+00
1.2043176495e+00
1.2043176438e+00
1.2043176419e+00
1.2043176413e+00
1.2043176411e+00
1.2043176410e+00
1.2043176410e+00
1.2043176410e+00
1.2043176410e+00
1.2043176410e+00
1.2043176410e+00
1.2043176410e+00
1.2043176410e+00
1.2043176410e+00
1.2043176410e+00
1.2043176410e+00
1.2043176410e+00
1.2043176410e+00
1.2043176410e+00
1.2043176410e+00
1.2043176410e+00
1.2043176410e+00
1.2043176410e+00
1.2043176410e+00
1.2043176410e+00
1.2043176410e+00
1.2043176410e+00
1.2043176410e+00
1.2043176410e+00
1.2043176410e+00
1.2043176410e+00
1.2043176410e+00
1.2043176410e+00
1.2043176410e+00
1.2043176410e+00
1.1849170828e+00
1.1855653103e+00
1.1863714770e+00
1.1875118295e+00
1.1889166120e+00
1.1905044369e+00
1.1921887452e+00
1.1938872798e+00
1.1955268551e+00
1.1970497210e+00
1.1984144851e+00
1.1995978732e+00
1.2005919934e+00
1.2014025991e+00
1.2020447007e+00
1.2025396863e+00
1.2029114568e+00
1.2031842753e+00
1.2033805213e+00
1.2035198790e+00
1.2036186240e+00
1.2036898096e+00
1.2037434363e+00
1.2037870361e+00
1.2038261265e+00
1.2038647864e+00
1.2039061008e+00
1.2039526021e+00
1.2040066428e+00
1.2040706865e+00
1.2041475370e+00
1.2042403292e+00
1.2043523521e+00
1.2044864460e+00
1.2046441802e+00
1.2048246907e+00
1.2050236335e+00
1.2052323922e+00
1.2054381086e+00
1.2056246188e+00
1.2057745760e+00
1.2058721523e+00
1.2059062327e+00
1.2058725706e+00
1.2057752871e+00
1.2056258416e+00
1.2054414486e+00
1.2052412938e+00
1.2050438576e+00
1.2048636017e+00
1.2047100712e+00
1.2045871950e+00
1.2044945622e+00
1.2044285333e+00
1.2043840079e+00
1.2043555392e+00
1.2043382850e+00
1.2043283592e+00
1.2043229427e+00
1.2043201373e+00
1.2043187591e+00
1.2043181169e+00
1.2043178334e+00
1.2043177147e+00
1.2043176678e+00
1.2043176502e+00
1.2043176440e+00
1.2043176419e+00
1.2043176413e+00
1.2043176411e+00
1.2043176410e+00
1.2043176410e+00
1.2043176410e+00
1.2043176410e+00
1.2043176410e+00
1.2043176410e+00
1.2043176410e+00
1.2043176410e+00
1.2043176410e+00
1.2043176410e+00
1.2043176410e+00
1.2043176410e+00
1.2043176410e+00
1.2043176410e+00
1.2043176410e+00
1.2043176410e+00
1.2043176410e+00
1.2043176410e+00
1.2043176410e+00
1.2043176410e+00
1.2043176410e+00
1.2043176410e+00
1.2043176410e+00
1.2043176410e+00
1.2043176410e+00
1.2043176410e+00
1.2043176410e+00
1.2043176410e+00
1.2043176410e+00
1.2043176410e+00
1.1865080821e+00
1.1871284991e+00
1.1878702791e+00
1.1889166120e+00
1.1902043146e+00
1.1916581157e+00
1.1931997915e+00
1.1947533081e+00
1.1962527015e+00
1.1976444867e+00
1.1988916631e+00
1.1999724600e+00
1.2008803229e+00
1.2016201783e+00
1.2022062019e+00
1.2026577101e+00
1.2029968188e+00
1.2032455214e+00
1.2034243997e+00
1.2035512831e+00
1.2036410706e+00
1.2037055337e+00
1.2037537551e+00
1.2037924466e+00
1.2038265301e+00
1.2038595618e+00
1.2038942425e+00
1.2039328278e+00
1.2039775501e+00
1.2040309863e+00
1.2040963166e+00
1.2041774321e+00
1.2042786961e+00
1.2044043607e+00
1.2045575054e+00
1.2047386963e+00
1.2049445752e+00
1.2051668054e+00
1.2053918674e+00
1.2056019962e+00
1.2057774059e+00
1.2058995389e+00
1.2059544617e+00
1.2059360193e+00
1.2058469897e+00
1.2056991359e+00
1.2055103467e+00
1.2053018247e+00
1.2050936128e+00
1.2049022461e+00
1.2047383238e+00
1.2046068010e+00
1.2045073952e+00
1.2044365194e+00
1.2043886957e+00
1.2043581544e+00
1.2043396593e+00
1.2043290439e+00
1.2043232634e+00
1.2043202789e+00
1.2043188176e+00
1.2043181395e+00
1.2043178414e+00
1.2043177174e+00
1.2043176686e+00
1.2043176504e+00
1.2043176440e+00
1.2043176419e+00
1.2043176413e+00
1.2043176411e+00
1.2043176410e+00
1.2043176410e+00
1.2043176410e+00
1.2043176410e+00
1.2043176410e+00
1.2043176410e+00
1.2043176410e+00
1.2043176410e+00
1.2043176410e+00
1.2043176410e+00
1.2043176410e+00
1.2043176410e+00
1.2043176410e+00
1.2043176410e+00
1.2043176410e+00
1.2043176410e+00
1.2043176410e+00
1.2043176410e+00
1.2043176410e+00
1.2043176410e+00
1.2043176410e+00
1.2043176410e+00
1.2043176410e+00
1.2043176410e+00
1.2043176410e+00
1.2043176410e+00
1.2043176410e+00
1.2043176410e+00
1.2043176410e+00
1.2043176410e+00
1.1883131254e+00
1.1888986937e+00
1.1895654823e+00
1.1905044369e+00
1.1916581157e+00
1.1929600145e+00
1.1943392589e+00
1.1957288515e+00
1.1970689996e+00
1.1983128419e+00
1.1994266794e+00
1.2003918472e+00
1.2012020557e+00
1.2018622892e+00
1.2023849220e+00
1.2027875877e+00
1.2030898338e+00
1.2033115141e+00
1.2034708442e+00
1.2035838332e+00
1.2036636338e+00
1.2037207514e+00
1.2037631367e+00
1.2037967027e+00
1.2038256736e+00
1.2038531138e+00
1.2038813236e+00
1.2039123246e+00
1.2039482809e+00
1.2039919315e+00
1.2040469164e+00
1.2041178972e+00
1.2042103380e+00
1.2043298045e+00
1.2044807427e+00
1.2046648926e+00
1.2048795505e+00
1.2051163399e+00
1.2053607647e+00
1.2055932954e+00
1.2057917591e+00
1.2059349731e+00
1.2060068021e+00
1.2059993400e+00
1.2059150093e+00
1.2057656872e+00
1.2055708653e+00
1.2053530667e+00
1.2051344884e+00
1.2049328029e+00
1.2047599542e+00
1.2046211628e+00
1.2045164353e+00
1.2044418430e+00
1.2043916607e+00
1.2043596892e+00
1.2043404047e+00
1.2043293755e+00
1.2043233985e+00
1.2043203272e+00
1.2043188319e+00
1.2043181422e+00
1.2043178410e+00
1.2043177166e+00
1.2043176681e+00
1.2043176501e+00
1.2043176439e+00
1.2043176419e+00
1.2043176412e+00
1.2043176411e+00
1.2043176410e+00
1.2043176410e+00
1.2043176410e+00
1.2043176410e+00
1.2043176410e+00
1.2043176410e+00
1.2043176410e+00
1.2043176410e+00
1.2043176410e+00
1.2043176410e+00
1.2043176410e+00
1.2043176410e+00
1.2043176410e+00
1.2043176410e+00
1.2043176410e+00
1.2043176410e+00
1.2043176410e+00
1.2043176410e+00
1.2043176410e+00
1.2043176410e+00
1.2043176410e+00
1.2043176410e+00
1.2043176410e+00
1.2043176410e+00
1.2043176410e+00
1.2043176410e+00
1.2043176410e+00
1.2043176410e+00
1.2043176410e+00
1.2043176410e+00
1.1902324685e+00
1.1907787762e+00
1.1913652055e+00
1.1921887452e+00
1.1931997915e+00
1.1943392589e+00
1.1955460982e+00
1.1967608486e+00
1.1979322283e+00
1.1990185511e+00
1.1999912495e+00
1.2008334860e+00
1.2015404545e+00
1.2021161497e+00
1.2025718542e+00
1.2029227197e+00
1.2031861012e+00
1.2033791474e+00
1.2035179032e+00
1.2036161849e+00
1.2036855099e+00
1.2037348896e+00
1.2037712171e+00
1.2037994812e+00
1.2038232691e+00
1.2038451072e+00
1.2038669598e+00
1.2038906397e+00
1.2039183223e+00
1.2039529879e+00
1.2039988124e+00
1.2040612918e+00
1.2041469925e+00
1.2042627106e+00
1.2044141007e+00
1.2046037475e+00
1.2048293073e+00
1.2050818910e+00
1.2053457968e+00
1.2055994644e+00
1.2058183870e+00
1.2059790574e+00
1.2060634010e+00
1.2060626432e+00
1.2059789122e+00
1.2058252765e+00
1.2056223276e+00
1.2053947483e+00
1.2051659165e+00
1.2049551159e+00
1.2047746482e+00
1.2046302466e+00
1.2045215722e+00
1.2044445261e+00
1.2043928890e+00
1.2043601707e+00
1.2043405313e+00
1.2043293692e+00
1.2043233563e+00
1.2043202883e+00
1.2043188054e+00
1.2043181269e+00
1.2043178332e+00
1.2043177129e+00
1.2043176664e+00
1.2043176495e+00
1.2043176437e+00
1.2043176418e+00
1.2043176412e+00
1.2043176411e+00
1.2043176410e+00
1.2043176410e+00
1.2043176410e+00
1.2043176410e+00
1.2043176410e+00
1.2043176410e+00
1.2043176410e+00
1.2043176410e+00
1.2043176410e+00
1.2043176410e+00
1.2043176410e+00
1.2043176410e+00
1.2043176410e+00
1.2043176410e+00
1.2043176410e+00
1.2043176410e+00
1.2043176410e+00
1.2043176410e+00
1.2043176410e+00
1.2043176410e+00
1.2043176410e+00
1.2043176410e+00
1.2043176410e+00
1.2043176410e+00
1.2043176410e+00
1.2043176410e+00
1.2043176410e+00
1.2043176410e+00
1.2043176410e+00
1.2043176410e+00
1.1921705813e+00
1.1926762015e+00
1.1931805018e+00
1.1938872798e+00
1.1947533081e+00
1.1957288515e+00
1.1967608486e+00
1.1977994137e+00
1.1987999425e+00
1.1997277251e+00
1.2005577527e+00
1.2012764019e+00
1.2018791441e+00
1.2023699476e+00
1.2027581548e+00
1.2030570599e+00
1.2032812670e+00
1.2034456101e+00
1.2035636111e+00
1.2036471374e+00
1.2037058541e+00
1.2037474345e+00
1.2037775841e+00
1.2038004743e+00
1.2038189911e+00
1.2038352128e+00
1.2038507672e+00
1.2038673597e+00
1.2038872397e+00
1.2039137459e+00
1.2039516731e+00
1.2040074322e+00
1.2040886721e+00
1.2042033643e+00
1.2043580981e+00
1.2045560707e+00
1.2047947636e+00
1.2050645108e+00
1.2053478895e+00
1.2056212820e+00
1.2058577970e+00
1.2060318946e+00
1.2061242042e+00
1.2061253630e+00
1.2060383033e+00
1.2058770527e+00
1.2056643548e+00
1.2054261656e+00
1.2051877389e+00
1.2049688189e+00
1.2047824431e+00
1.2046339578e+00
1.2045229134e+00
1.2044445946e+00
1.2043924687e+00
1.2043596411e+00
1.2043400857e+00
1.2043290503e+00
1.2043231550e+00
1.2043201721e+00
1.2043187436e+00
1.2043180964e+00
1.2043178190e+00
1.2043177068e+00
1.2043176640e+00
1.2043176486e+00
1.2043176433e+00
1.2043176417e+00
1.2043176412e+00
1.2043176410e+00
1.2043176410e+00
1.2043176410e+00
1.2043176410e+00
1.2043176410e+00
1.2043176410e+00
1.2043176410e+00
1.2043176410e+00
1.2043176410e+00
1.2043176410e+00
1.2043176410e+00
1.2043176410e+00
1.2043176410e+00
1.2043176410e+00
1.2043176410e+00
1.2043176410e+00
1.2043176410e+00
1.2043176410e+00
1.2043176410e+00
1.2043176410e+00
1.2043176410e+00
1.2043176410e+00
1.2043176410e+00
1.2043176410e+00
1.2043176410e+00
1.2043176410e+00
1.2043176410e+00
1.2043176410e+00
1.2043176410e+00
1.2043176410e+00
1.2043176410e+00
1.1940439396e+00
1.1945090709e+00
1.1949338041e+00
1.1955268551e+00
1.1962527015e+00
1.1970689996e+00
1.1979322283e+00
1.1987999425e+00
1.1996357501e+00
1.2004100203e+00
1.2011026482e+00
1.2017017850e+00
1.2022042617e+00
1.2026130605e+00
1.2029364005e+00
1.2031851410e+00
1.2033717188e+00
1.2035083258e+00
1.2036063599e+00
1.2036755517e+00
1.2037239770e+00
1.2037578562e+00
1.2037818797e+00
1.2037993337e+00
1.2038125285e+00
1.2038230757e+00
1.2038323880e+00
1.2038421056e+00
1.2038546952e+00
1.2038739391e+00
1.2039053893e+00
1.2039564020e+00
1.2040357474e+00
1.2041523769e+00
1.2043136659e+00
1.2045229033e+00
1.2047771329e+00
1.2050652387e+00
1.2053679686e+00
1.2056592706e+00
1.2059101267e+00
1.2060932838e+00
1.2061885112e+00
1.2061868419e+00
1.2060920801e+00
1.2059203965e+00
1.2056960057e+00
1.2054470575e+00
1.2051994676e+00
1.2049739895e+00
1.2047832415e+00
1.2046325098e+00
1.2045205379e+00
1.2044422318e+00
1.2043904950e+00
1.2043582035e+00
1.2043391247e+00
1.2043284614e+00
1.2043228180e+00
1.2043199923e+00
1.2043186536e+00
1.2043180541e+00
1.2043178004e+00
1.2043176991e+00
1.2043176610e+00
1.2043176475e+00
1.2043176430e+00
1.2043176416e+00
1.2043176412e+00
1.2043176410e+00
1.2043176410e+00
1.2043176410e+00
1.2043176410e+00
1.2043176410e+00
1.2043176410e+00
1.2043176410e+00
1.2043176410e+00
1.2043176410e+00
1.2043176410e+00
1.2043176410e+00
1.2043176410e+00
1.2043176410e+00
1.2043176410e+00
1.2043176410e+00
1.2043176410e+00
1.2043176410e+00
1.2043176410e+00
1.2043176410e+00
1.2043176410e+00
1.2043176410e+00
1.2043176410e+00
1.2043176410e+00
1.2043176410e+00
1.2043176410e+00
1.2043176410e+00
1.2043176410e+00
1.2043176410e+00
1.2043176410e+00
1.2043176410e+00
1.2043176410e+00
1.1957855600e+00
1.1962123863e+00
1.1965624750e+00
1.1970497210e+00
1.1976444867e+00
1.1983128419e+00
1.1990185511e+00
1.1997277251e+00
1.2004100203e+00
1.2010419956e+00
1.2016067425e+00
1.2020952195e+00
1.2025044816e+00
1.2028374257e+00
1.2031005015e+00
1.2033028643e+00
1.2034544617e+00
1.2035653925e+00
1.2036447768e+00
1.2037005918e+00
1.2037392398e+00
1.2037657425e+00
1.2037837199e+00
1.2037957464e+00
1.2038035304e+00
1.2038083627e+00
1.2038114649e+00
1.2038145733e+00
1.2038204493e+00
1.2038334960e+00
1.2038600851e+00
1.2039086345e+00
1.2039889192e+00
1.2041108132e+00
1.2042820197e+00
1.2045056897e+00
1.2047776854e+00
1.2050852680e+00
1.2054067170e+00
1.2057137279e+00
1.2059751231e+00
1.2061624522e+00
1.2062553805e+00
1.2062456881e+00
1.2061392596e+00
1.2059540232e+00
1.2057167775e+00
1.2054567112e+00
1.2052011441e+00
1.2049704776e+00
1.2047773598e+00
1.2046260369e+00
1.2045147587e+00
1.2044376090e+00
1.2043871612e+00
1.2043559664e+00
1.2043377351e+00
1.2043276504e+00
1.2043223751e+00
1.2043197646e+00
1.2043185435e+00
1.2043180040e+00
1.2043177789e+00
1.2043176905e+00
1.2043176577e+00
1.2043176463e+00
1.2043176426e+00
1.2043176414e+00
1.2043176411e+00
1.2043176410e+00
1.2043176410e+00
1.2043176410e+00
1.2043176410e+00
1.2043176410e+00
1.2043176410e+00
1.2043176410e+00
1.2043176410e+00
1.2043176410e+00
1.2043176410e+00
1.2043176410e+00
1.2043176410e+00
1.2043176410e+00
1.2043176410e+00
1.2043176410e+00
1.2043176410e+00
1.2043176410e+00
1.2043176410e+00
1.2043176410e+00
1.2043176410e+00
1.2043176410e+00
1.2043176410e+00
1.2043176410e+00
1.2043176410e+00
1.2043176410e+00
1.2043176410e+00
1.2043176410e+00
1.2043176410e+00
1.2043176410e+00
1.2043176410e+00
1.2043176410e+00
1.1973483155e+00
1.1977397909e+00
1.1980228041e+00
1.1984144851e+00
1.1988916631e+00
1.1994266794e+00
1.1999912495e+00
1.2005577527e+00
1.2011026482e+00
1.2016067425e+00
1.2020571528e+00
1.2024462948e+00
1.2027722984e+00
1.2030372043e+00
1.2032464855e+00
1.2034072368e+00
1.2035275786e+00
1.2036153829e+00
1.2036779904e+00
1.2037215754e+00
1.2037512107e+00
1.2037706886e+00
1.2037827902e+00
1.2037893566e+00
1.2037916717e+00
1.2037907167e+00
1.2037877003e+00
1.2037845196e+00
1.2037844333e+00
1.2037925442e+00
1.2038162200e+00
1.2038648904e+00
1.2039493661e+00
1.2040800704e+00
1.2042648611e+00
1.2045060069e+00
1.2047979771e+00
1.2051255873e+00
1.2054647353e+00
1.2057844967e+00
1.2060520592e+00
1.2062382288e+00
1.2063231511e+00
1.2063004752e+00
1.2061781268e+00
1.2059770343e+00
1.2057256079e+00
1.2054550098e+00
1.2051924811e+00
1.2049586648e+00
1.2047649679e+00
1.2046150054e+00
1.2045058423e+00
1.2044310487e+00
1.2043826528e+00
1.2043530883e+00
1.2043360051e+00
1.2043266759e+00
1.2043218574e+00
1.2043195058e+00
1.2043184216e+00
1.2043179498e+00
1.2043177563e+00
1.2043176816e+00
1.2043176544e+00
1.2043176452e+00
1.2043176422e+00
1.2043176413e+00
1.2043176411e+00
1.2043176410e+00
1.2043176410e+00
1.2043176410e+00
1.2043176410e+00
1.2043176410e+00
1.2043176410e+00
1.2043176410e+00
1.2043176410e+00
1.2043176410e+00
1.2043176410e+00
1.2043176410e+00
1.2043176410e+00
1.2043176410e+00
1.2043176410e+00
1.2043176410e+00
1.2043176410e+00
1.2043176410e+00
1.2043176410e+00
1.2043176410e+00
1.2043176410e+00
1.2043176410e+00
1.2043176410e+00
1.2043176410e+00
1.2043176410e+00
1.2043176410e+00
1.2043176410e+00
1.2043176410e+00
1.2043176410e+00
1.2043176410e+00
1.2043176410e+00
1.2043176410e+00
1.1987047708e+00
1.1990648715e+00
1.1992891734e+00
1.1995978732e+00
1.1999724600e+00
1.2003918472e+00
1.2008334860e+00
1.2012764019e+00
1.2017017850e+00
1.2020952195e+00
1.2024462948e+00
1.2027495636e+00
1.2030032939e+00
1.2032094207e+00
1.2033720007e+00
1.2034967781e+00
1.2035899012e+00
1.2036576001e+00
1.2037054113e+00
1.2037381359e+00
1.2037595142e+00
1.2037724044e+00
1.2037787410e+00
1.2037798466e+00
1.2037765873e+00
1.2037698318e+00
1.2037608275e+00
1.2037518531e+00
1.2037467477e+00
1.2037515335e+00
1.2037745753e+00
1.2038264239e+00
1.2039186410e+00
1.2040620960e+00
1.2042641046e+00
1.2045258300e+00
1.2048394193e+00
1.2051872322e+00
1.2055421319e+00
1.2058710493e+00
1.2061396564e+00
1.2063187637e+00
1.2063899364e+00
1.2063490115e+00
1.2062072467e+00
1.2059878891e+00
1.2057220633e+00
1.2054414119e+00
1.2051738441e+00
1.2049387083e+00
1.2047466891e+00
1.2045997866e+00
1.2044942807e+00
1.2044228417e+00
1.2043772356e+00
1.2043497196e+00
1.2043340414e+00
1.2043255955e+00
1.2043212980e+00
1.2043192326e+00
1.2043182958e+00
1.2043178954e+00
1.2043177341e+00
1.2043176730e+00
1.2043176513e+00
1.2043176441e+00
1.2043176419e+00
1.2043176412e+00
1.2043176411e+00
1.2043176410e+00
1.2043176410e+00
1.2043176410e+00