# vtk DataFile Version 2.0
Blank
ASCII
DATASET STRUCTURED_GRID
DIMENSIONS 101 101 2
POINTS 20402 float
0.0000000000e+00 0.0000000000e+00 0.0000000000e+00
1.0000000000e-02 0.0000000000e+00 0.0000000000e+00
2.0000000000e-02 0.0000000000e+00 0.0000000000e+00
3.0000000000e-02 0.0000000000e+00 0.0000000000e+00
4.0000000000e-02 0.0000000000e+00 0.0000000000e+00
5.0000000000e-02 0.0000000000e+00 0.0000000000e+00
6.0000000000e-02 0.0000000000e+00 0.0000000000e+00
7.0000000000e-02 0.0000000000e+00 0.0000000000e+00
8.0000000000e-02 0.0000000000e+00 0.0000000000e+00
9.0000000000e-02 0.0000000000e+00 0.0000000000e+00
1.0000000000e-01 0.0000000000e+00 0.0000000000e+00
1.1000000000e-01 0.0000000000e+00 0.0000000000e+00
1.2000000000e-01 0.0000000000e+00 0.0000000000e+00
1.3000000000e-01 0.0000000000e+00 0.0000000000e+00
1.4000000000e-01 0.0000000000e+00 0.0000000000e+00
1.5000000000e-01 0.0000000000e+00 0.0000000000e+00
1.6000000000e-01 0.0000000000e+00 0.0000000000e+00
1.7000000000e-01 0.0000000000e+00 0.0000000000e+00
1.8000000000e-01 0.0000000000e+00 0.0000000000e+00
1.9000000000e-01 0.0000000000e+00 0.0000000000e+00
2.0000000000e-01 0.0000000000e+00 0.0000000000e+00
2.1000000000e-01 0.0000000000e+00 0.0000000000e+00
2.2000000000e-01 0.0000000000e+00 0.0000000000e+00
2.3000000000e-01 0.0000000000e+00 0.0000000000e+00
2.4000000000e-01 0.0000000000e+00 0.0000000000e+00
2.5000000000e-01 0.0000000000e+00 0.0000000000e+00
2.6000000000e-01 0.0000000000e+00 0.0000000000e+00
2.7000000000e-01 0.0000000000e+00 0.0000000000e+00
2.8000000000e-01 0.0000000000e+00 0.0000000000e+00
2.9000000000e-01 0.0000000000e+00 0.0000000000e+00
3.0000000000e-01 0.0000000000e+00 0.0000000000e+00
3.1000000000e-01 0.0000000000e+00 0.0000000000e+00
3.2000000000e-01 0.0000000000e+00 0.0000000000e+00
3.3000000000e-01 0.0000000000e+00 0.0000000000e+00
3.4000000000e-01 0.0000000000e+00 0.0000000000e+00
3.5000000000e-01 0.0000000000e+00 0.0000000000e+00
3.6000000000e-01 0.0000000000e+00 0.0000000000e+00
3.7000000000e-01 0.0000000000e+00 0.0000000000e+00
3.8000000000e-01 0.0000000000e+00 0.0000000000e+00
3.9000000000e-01 0.0000000000e+00 0.0000000000e+00
4.0000000000e-01 0.0000000000e+00 0.0000000000e+00
4.1000000000e-01 0.0000000000e+00 0.0000000000e+00
4.2000000000e-01 0.0000000000e+00 0.0000000000e+00
4.3000000000e-01 0.0000000000e+00 0.0000000000e+00
4.4000000000e-01 0.0000000000e+00 0.0000000000e+00
4.5000000000e-01 0.0000000000e+00 0.0000000000e+00
4.6000000000e-01 0.0000000000e+00 0.0000000000e+00
4.7000000000e-01 0.0000000000e+00 0.0000000000e+00
4.8000000000e-01 0.0000000000e+00 0.0000000000e+00
4.9000000000e-01 0.0000000000e+00 0.0000000000e+00
5.0000000000e-01 0.0000000000e+00 0.0000000000e+00
5.1000000000e-01 0.0000000000e+00 0.0000000000e+00
5.2000000000e-01 0.0000000000e+00 0.0000000000e+00
5.3000000000e-01 0.0000000000e+00 0.0000000000e+00
5.4000000000e-01 0.0000000000e+00 0.0000000000e+00
5.5000000000e-01 0.0000000000e+00 0.0000000000e+00
5.6000000000e-01 0.0000000000e+00 0.0000000000e+00
5.7000000000e-01 0.0000000000e+00 0.0000000000e+00
5.8000000000e-01 0.0000000000e+00 0.0000000000e+00
5.9000000000e-01 0.0000000000e+00 0.0000000000e+00
6.0000000000e-01 0.0000000000e+00 0.0000000000e+00
6.1000000000e-01 0.0000000000e+00 0.0000000000e+00
6.2000000000e-01 0.0000000000e+00 0.0000000000e+00
6.3000000000e-01 0.0000000000e+00 0.0000000000e+00
6.4000000000e-01 0.0000000000e+00 0.0000000000e+00
6.5000000000e-01 0.0000000000e+00 0.0000000000e+00
6.6000000000e-01 0.0000000000e+00 0.0000000000e+00
6.7000000000e-01 0.0000000000e+00 0.0000000000e+00
6.8000000000e-01 0.0000000000e+00 0.0000000000e+00
6.9000000000e-01 0.0000000000e+00 0.0000000000e+00
7.0000000000e-01 0.0000000000e+00 0.0000000000e+00
7.1000000000e-01 0.0000000000e+00 0.0000000000e+00
7.2000000000e-01 0.0000000000e+00 0.0000000000e+00
7.3000000000e-01 0.0000000000e+00 0.0000000000e+00
7.4000000000e-01 0.0000000000e+00 0.0000000000e+00
7.5000000000e-01 0.0000000000e+00 0.0000000000e+00
7.6000000000e-01 0.0000000000e+00 0.0000000000e+00
7.7000000000e-01 0.0000000000e+00 0.0000000000e+00
7.8000000000e-01 0.0000000000e+00 0.0000000000e+00
7.9000000000e-01 0.0000000000e+00 0.0000000000e+00
8.0000000000e-01 0.0000000000e+00 0.0000000000e+00
8.1000000000e-01 0.0000000000e+00 0.0000000000e+00
8.2000000000e-01 0.0000000000e+00 0.0000000000e+00
8.3000000000e-01 0.0000000000e+00 0.0000000000e+00
8.4000000000e-01 0.0000000000e+00 0.0000000000e+00
8.5000000000e-01 0.0000000000e+00 0.0000000000e+00
8.6000000000e-01 0.0000000000e+00 0.0000000000e+00
8.7000000000e-01 0.0000000000e+00 0.0000000000e+00
8.8000000000e-01 0.0000000000e+00 0.0000000000e+00
8.9000000000e-01 0.0000000000e+00 0.0000000000e+00
9.0000000000e-01 0.0000000000e+00 0.0000000000e+00
9.1000000000e-01 0.0000000000e+00 0.0000000000e+00
9.2000000000e-01 0.0000000000e+00 0.0000000000e+00
9.3000000000e-01 0.0000000000e+00 0.0000000000e+00
9.4000000000e-01 0.0000000000e+00 0.0000000000e+00
9.5000000000e-01 0.0000000000e+00 0.0000000000e+00
9.6000000000e-01 0.0000000000e+00 0.0000000000e+00
9.7000000000e-01 0.0000000000e+00 0.0000000000e+00
9.8000000000e-01 0.0000000000e+00 0.0000000000e+00
9.9000000000e-01 0.0000000000e+00 0.0000000000e+00
1.0000000000e+00 0.0000000000e+00 0.0000000000e+00
0.0000000000e+00 1.0000000000e-02 0.0000000000e+00
1.0000000000e-02 1.0000000000e-02 0.0000000000e+00
2.0000000000e-02 1.0000000000e-02 0.0000000000e+00
3.0000000000e-02 1.0000000000e-02 0.0000000000e+00
4.0000000000e-02 1.0000000000e-02 0.0000000000e+00
5.0000000000e-02 1.0000000000e-02 0.0000000000e+00
6.0000000000e-02 1.0000000000e-02 0.0000000000e+00
7.0000000000e-02 1.0000000000e-02 0.0000000000e+00
8.0000000000e-02 1.0000000000e-02 0.0000000000e+00
9.0000000000e-02 1.0000000000e-02 0.0000000000e+00
1.0000000000e-01 1.0000000000e-02 0.0000000000e+00
1.1000000000e-01 1.0000000000e-02 0.0000000000e+00
1.2000000000e-01 1.0000000000e-02 0.0000000000e+00
1.3000000000e-01 1.0000000000e-02 0.0000000000e+00
1.4000000000e-01 1.0000000000e-02 0.0000000000e+00
1.5000000000e-01 1.0000000000e-02 0.0000000000e+00
1.6000000000e-01 1.0000000000e-02 0.0000000000e+00
1.7000000000e-01 1.0000000000e-02 0.0000000000e+00
1.8000000000e-01 1.0000000000e-02 0.0000000000e+00
1.9000000000e-01 1.0000000000e-02 0.0000000000e+00
2.0000000000e-01 1.0000000000e-02 0.0000000000e+00
2.1000000000e-01 1.0000000000e-02 0.0000000000e+00
2.2000000000e-01 1.0000000000e-02 0.0000000000e+00
2.3000000000e-01 1.0000000000e-02 0.0000000000e+00
2.4000000000e-01 1.0000000000e-02 0.0000000000e+00
2.5000000000e-01 1.0000000000e-02 0.0000000000e+00
2.6000000000e-01 1.0000000000e-02 0.0000000000e+00
2.7000000000e-01 1.0000000000e-02 0.0000000000e+00
2.8000000000e-01 1.0000000000e-02 0.0000000000e+00
2.9000000000e-01 1.0000000000e-02 0.0000000000e+00
3.0000000000e-01 1.0000000000e-02 0.0000000000e+00
3.1000000000e-01 1.0000000000e-02 0.0000000000e+00
3.2000000000e-01 1.0000000000e-02 0.0000000000e+00
3.3000000000e-01 1.0000000000e-02 0.0000000000e+00
3.4000000000e-01 1.0000000000e-02 0.0000000000e+00
3.5000000000e-01 1.0000000000e-02 0.0000000000e+00
3.6000000000e-01 1.0000000000e-02 0.0000000000e+00
3.7000000000e-01 1.0000000000e-02 0.0000000000e+00
3.8000000000e-01 1.0000000000e-02 0.0000000000e+00
3.9000000000e-01 1.0000000000e-02 0.0000000000e+00
4.0000000000e-01 1.0000000000e-02 0.0000000000e+00
4.1000000000e-01 1.0000000000e-02 0.0000000000e+00
4.2000000000e-01 1.0000000000e-02 0.0000000000e+00
4.3000000000e-01 1.0000000000e-02 0.0000000000e+00
4.4000000000e-01 1.0000000000e-02 0.0000000000e+00
4.5000000000e-01 1.0000000000e-02 0.0000000000e+00
4.6000000000e-01 1.0000000000e-02 0.0000000000e+00
4.7000000000e-01 1.0000000000e-02 0.0000000000e+00
4.8000000000e-01 1.0000000000e-02 0.0000000000e+00
4.9000000000e-01 1.0000000000e-02 0.0000000000e+00
5.0000000000e-01 1.0000000000e-02 0.0000000000e+00
5.1000000000e-01 1.0000000000e-02 0.0000000000e+00
5.2000000000e-01 1.0000000000e-02 0.0000000000e+00
5.3000000000e-01 1.0000000000e-02 0.0000000000e+00
5.4000000000e-01 1.0000000000e-02 0.0000000000e+00
5.5000000000e-01 1.0000000000e-02 0.0000000000e+00
5.6000000000e-01 1.0000000000e-02 0.0000000000e+00
5.7000000000e-01 1.0000000000e-02 0.0000000000e+00
5.8000000000e-01 1.0000000000e-02 0.0000000000e+00
5.9000000000e-01 1.0000000000e-02 0.0000000000e+00
6.0000000000e-01 1.0000000000e-02 0.0000000000e+00
6.1000000000e-01 1.0000000000e-02 0.0000000000e+00
6.2000000000e-01 1.0000000000e-02 0.0000000000e+00
6.3000000000e-01 1.0000000000e-02 0.0000000000e+00
6.4000000000e-01 1.0000000000e-02 0.0000000000e+00
6.5000000000e-01 1.0000000000e-02 0.0000000000e+00
6.6000000000e-01 1.0000000000e-02 0.0000000000e+00
6.7000000000e-01 1.0000000000e-02 0.0000000000e+00
6.8000000000e-01 1.0000000000e-02 0.0000000000e+00
6.9000000000e-01 1.0000000000e-02 0.0000000000e+00
7.0000000000e-01 1.0000000000e-02 0.0000000000e+00
7.1000000000e-01 1.0000000000e-02 0.0000000000e+00
7.2000000000e-01 1.0000000000e-02 0.0000000000e+00
7.3000000000e-01 1.0000000000e-02 0.0000000000e+00
7.4000000000e-01 1.0000000000e-02 0.0000000000e+00
7.5000000000e-01 1.0000000000e-02 0.0000000000e+00
7.6000000000e-01 1.0000000000e-02 0.0000000000e+00
7.7000000000e-01 1.0000000000e-02 0.0000000000e+00
7.8000000000e-01 1.0000000000e-02 0.0000000000e+00
7.9000000000e-01 1.0000000000e-02 0.0000000000e+00
8.0000000000e-01 1.0000000000e-02 0.0000000000e+00
8.1000000000e-01 1.0000000000e-02 0.0000000000e+00
8.2000000000e-01 1.0000000000e-02 0.0000000000e+00
8.3000000000e-01 1.0000000000e-02 0.0000000000e+00
8.4000000000e-01 1.0000000000e-02 0.0000000000e+00
8.5000000000e-01 1.0000000000e-02 0.0000000000e+00
8.6000000000e-01 1.0000000000e-02 0.0000000000e+00
8.7000000000e-01 1.0000000000e-02 0.0000000000e+00
8.8000000000e-01 1.0000000000e-02 0.0000000000e+00
8.9000000000e-01 1.0000000000e-02 0.0000000000e+00
9.0000000000e-01 1.0000000000e-02 0.0000000000e+00
9.1000000000e-01 1.0000000000e-02 0.0000000000e+00
9.2000000000e-01 1.0000000000e-02 0.0000000000e+00
[...]
CELL_DATA 10000

SCALARS massDensity float
LOOKUP_TABLE default
1.1961413320e+00
1.1962307839e+00
1.1963616186e+00
1.1965573188e+00
1.1968125969e+00
1.1971209041e+00
1.1974746787e+00
1.1978656425e+00
1.1982850697e+00
1.1987241078e+00
1.1991740434e+00
1.1996265925e+00
1.2000741093e+00
1.2005097965e+00
1.2009278216e+00
1.2013234239e+00
1.2016929282e+00
1.2020337512e+00
1.2023443284e+00
1.2026240429e+00
1.2028730955e+00
1.2030923903e+00
1.2032833822e+00
1.2034479540e+00
1.2035882713e+00
1.2037066762e+00
1.2038055709e+00
1.2038873413e+00
1.2039542779e+00
1.2040085333e+00
1.2040520777e+00
1.2040866871e+00
1.2041139256e+00
1.2041351552e+00
1.2041515365e+00
1.2041640501e+00
1.2041735070e+00
1.2041805741e+00
1.2041857882e+00
1.2041895796e+00
1.2041922859e+00
1.2041941718e+00
1.2041954396e+00
1.2041962450e+00
1.2041967039e+00
1.2041969042e+00
1.2041969098e+00
1.2041967688e+00
1.2041965154e+00
1.2041961755e+00
1.2041957677e+00
1.2041953063e+00
1.2041948023e+00
1.2041942653e+00
1.2041937036e+00
1.2041931260e+00
1.2041925424e+00
1.2041919646e+00
1.2041914078e+00
1.2041908914e+00
1.2041904416e+00
1.2041900922e+00
1.2041898879e+00
1.2041898857e+00
1.2041901587e+00
1.2041907973e+00
1.2041919123e+00
1.2041936350e+00
1.2041961185e+00
1.2041995341e+00
1.2042040691e+00
1.2042099186e+00
1.2042172777e+00
1.2042263283e+00
1.2042372273e+00
1.2042500891e+00
1.2042649736e+00
1.2042818702e+00
1.2043006895e+00
1.2043212560e+00
1.2043433102e+00
1.2043665131e+00
1.2043904629e+00
1.2044147115e+00
1.2044387925e+00
1.2044622448e+00
1.2044846423e+00
1.2045056139e+00
1.2045248635e+00
1.2045421735e+00
1.2045574044e+00
1.2045704748e+00
1.2045813373e+00
1.2045899375e+00
1.2045961774e+00
1.2045998723e+00
1.2046007289e+00
1.2045983450e+00
1.2045922892e+00
1.2046589764e+00
1.1962307839e+00
1.1963247812e+00
1.1964571064e+00
1.1966528009e+00
1.1969069710e+00
1.1972133338e+00
1.1975645461e+00
1.1979524723e+00
1.1983685291e+00
1.1988039555e+00
1.1992501467e+00
1.1996988843e+00
1.2001426086e+00
1.2005745688e+00
1.2009889980e+00
1.2013811637e+00
1.2017474363e+00
1.2020852441e+00
1.2023930496e+00
1.2026702332e+00
1.2029170072e+00
1.2031342620e+00
1.2033234529e+00
1.2034864419e+00
1.2036253875e+00
1.2037426082e+00
1.2038404951e+00
1.2039214106e+00
1.2039876332e+00
1.2040412936e+00
1.2040843516e+00
1.2041185640e+00
1.2041454867e+00
1.2041664661e+00
1.2041826568e+00
1.2041950270e+00
1.2042043840e+00
1.2042113854e+00
1.2042165656e+00
1.2042203483e+00
1.2042230700e+00
1.2042249903e+00
1.2042263114e+00
1.2042271850e+00
1.2042277276e+00
1.2042280239e+00
1.2042281386e+00
1.2042281172e+00
1.2042279945e+00
1.2042277945e+00
1.2042275359e+00
1.2042272316e+00
1.2042268923e+00
1.2042265260e+00
1.2042261408e+00
1.2042257438e+00
1.2042253436e+00
1.2042249503e+00
1.2042245771e+00
1.2042242411e+00
1.2042239647e+00
1.2042237778e+00
1.2042237192e+00
1.2042238388e+00
1.2042241992e+00
1.2042248781e+00
1.2042259686e+00
1.2042275804e+00
1.2042298376e+00
1.2042328778e+00
1.2042368452e+00
1.2042418864e+00
1.2042481396e+00
1.2042557259e+00
1.2042647357e+00
1.2042752192e+00
1.2042871728e+00
1.2043005332e+00
1.2043151690e+00
1.2043308830e+00
1.2043474140e+00
1.2043644492e+00
1.2043816371e+00
1.2043986097e+00
1.2044150014e+00
1.2044304745e+00
1.2044447371e+00
1.2044575632e+00
1.2044687995e+00
1.2044783742e+00
1.2044862875e+00
1.2044926052e+00
1.2044974370e+00
1.2045009216e+00
1.2045032046e+00
1.2045044362e+00
1.2045047800e+00
1.2045044759e+00
1.2045039794e+00
1.2045805000e+00
1.1963616186e+00
1.1964571064e+00
1.1965882266e+00
1.1967812917e+00
1.1970315893e+00
1.1973330464e+00
1.1976784835e+00
1.1980599605e+00
1.1984690408e+00
1.1988971476e+00
1.1993358072e+00
1.1997769671e+00
1.2002131761e+00
1.2006378200e+00
1.2010452106e+00
1.2014307152e+00
1.2017907486e+00
1.2021228005e+00
1.2024253449e+00
1.2026977887e+00
1.2029403283e+00
1.2031538530e+00
1.2033397834e+00
1.2034999615e+00
1.2036365011e+00
1.2037516907e+00
1.2038478740e+00
1.2039273810e+00
1.2039924452e+00
1.2040451678e+00
1.2040874694e+00
1.2041210825e+00
1.2041475312e+00
1.2041681436e+00
1.2041840499e+00
1.2041962057e+00
1.2042054005e+00
1.2042122838e+00
1.2042173773e+00
1.2042211005e+00
1.2042237808e+00
1.2042256759e+00
1.2042269820e+00
1.2042278503e+00
1.2042283929e+00
1.2042286952e+00
1.2042288187e+00
1.2042288098e+00
1.2042287012e+00
1.2042285179e+00
1.2042282769e+00
1.2042279920e+00
1.2042276731e+00
1.2042273289e+00
1.2042269667e+00
1.2042265948e+00
1.2042262217e+00
1.2042258585e+00
1.2042255193e+00
1.2042252227e+00
1.2042249934e+00
1.2042248639e+00
1.2042248768e+00
1.2042250863e+00
1.2042255607e+00
1.2042263834e+00
1.2042276550e+00
1.2042294912e+00
1.2042320236e+00
1.2042353938e+00
1.2042397500e+00
1.2042452374e+00
1.2042519899e+00
1.2042601168e+00
1.2042696925e+00
1.2042807420e+00
1.2042932323e+00
1.2043070626e+00
1.2043220622e+00
1.2043379908e+00
1.2043545471e+00
1.2043713804e+00
1.2043881114e+00
1.2044043514e+00
1.2044197299e+00
1.2044339149e+00
1.2044466377e+00
1.2044577059e+00
1.2044670169e+00
1.2044745568e+00
1.2044804000e+00
1.2044846941e+00
1.2044876495e+00
1.2044895200e+00
1.2044905962e+00
1.2044912017e+00
1.2044917192e+00
1.2044926433e+00
1.2044947035e+00
1.2045740060e+00
1.1965573188e+00
1.1966528009e+00
1.1967812917e+00
1.1969699922e+00
1.1972143458e+00
1.1975084439e+00
1.1978453415e+00
1.1982172969e+00
1.1986161296e+00
1.1990334631e+00
1.1994610726e+00
1.1998910863e+00
1.2003162715e+00
1.2007301575e+00
1.2011272263e+00
1.2015029407e+00
1.2018538297e+00
1.2021774277e+00
1.2024722680e+00
1.2027377566e+00
1.2029741028e+00
1.2031821605e+00
1.2033633287e+00
1.2035193925e+00
1.2036524239e+00
1.2037646447e+00
1.2038583488e+00
1.2039357995e+00
1.2039991816e+00
1.2040505362e+00
1.2040917415e+00
1.2041244802e+00
1.2041502429e+00
1.2041703186e+00
1.2041858132e+00
1.2041976535e+00
1.2042066123e+00
1.2042133188e+00
1.2042182847e+00
1.2042219150e+00
1.2042245317e+00
1.2042263830e+00
1.2042276623e+00
1.2042285145e+00
1.2042290511e+00
1.2042293529e+00
1.2042294818e+00
1.2042294813e+00
1.2042293846e+00
1.2042292148e+00
1.2042289897e+00
1.2042287217e+00
1.2042284214e+00
1.2042280968e+00
1.2042277560e+00
1.2042274067e+00
1.2042270584e+00
1.2042267226e+00
1.2042264145e+00
1.2042261540e+00
1.2042259679e+00
1.2042258914e+00
1.2042259702e+00
1.2042262632e+00
1.2042268435e+00
1.2042278010e+00
1.2042292420e+00
1.2042312898e+00
1.2042340816e+00
1.2042377651e+00
1.2042424908e+00
1.2042484046e+00
1.2042556352e+00
1.2042642833e+00
1.2042744066e+00
1.2042860086e+00
1.2042990270e+00
1.2043133274e+00
1.2043287004e+00
1.2043448661e+00
1.2043614833e+00
1.2043781671e+00
1.2043945087e+00
1.2044101021e+00
1.2044245690e+00
1.2044375859e+00
1.2044489035e+00
1.2044583656e+00
1.2044659150e+00
1.2044715990e+00
1.2044755587e+00
1.2044780230e+00
1.2044792885e+00
1.2044797104e+00
1.2044796862e+00
1.2044796607e+00
1.2044801330e+00
1.2044816968e+00
1.2044850943e+00
1.2045641636e+00
1.1968125969e+00
1.1969069710e+00
1.1970315893e+00
1.1972143458e+00
1.1974508005e+00
1.1977352720e+00
1.1980610324e+00
1.1984206404e+00
1.1988061689e+00
1.1992095616e+00
1.1996228432e+00
1.2000384421e+00
1.2004493401e+00
1.2008493166e+00
1.2012330122e+00
1.2015960718e+00
1.2019351174e+00
1.2022477922e+00
1.2025326589e+00
1.2027891656e+00
1.2030174984e+00
1.2032185006e+00
1.2033935112e+00
1.2035442698e+00
1.2036727681e+00
1.2037811647e+00
1.2038716673e+00
1.2039464723e+00
1.2040076833e+00
1.2040572799e+00
1.2040970705e+00
1.2041286868e+00
1.2041535636e+00
1.2041729511e+00
1.2041879129e+00
1.2041993485e+00
1.2042080003e+00
1.2042144796e+00
1.2042192771e+00
1.2042227869e+00
1.2042253170e+00
1.2042271098e+00
1.2042283493e+00
1.2042291778e+00
1.2042297006e+00
1.2042299980e+00
1.2042301275e+00
1.2042301329e+00
1.2042300448e+00
1.2042298867e+00
1.2042296748e+00
1.2042294222e+00
1.2042291382e+00
1.2042288316e+00
1.2042285097e+00
1.2042281811e+00
1.2042278552e+00
1.2042275443e+00
1.2042272643e+00
1.2042270366e+00
1.2042268898e+00
1.2042268615e+00
1.2042270008e+00
1.2042273704e+00
1.2042280485e+00
1.2042291305e+00
1.2042307293e+00
1.2042329745e+00
1.2042360099e+00
1.2042399879e+00
1.2042450633e+00
1.2042513817e+00
1.2042590692e+00
1.2042682172e+00
1.2042788698e+00
1.2042910097e+00
1.2043045483e+00
1.2043193190e+00
1.2043350767e+00
1.2043515031e+00
1.2043682200e+00
1.2043848078e+00
1.2044008307e+00
1.2044158637e+00
1.2044295224e+00
1.2044414877e+00
1.2044515312e+00
1.2044595275e+00
1.2044654661e+00
1.2044694471e+00
1.2044716786e+00
1.2044724584e+00
1.2044721632e+00
1.2044712265e+00
1.2044701312e+00
1.2044693973e+00
1.2044695893e+00
1.2044713224e+00
1.2044752842e+00
1.2045524864e+00
1.1971209041e+00
1.1972133338e+00
1.1973330464e+00
1.1975084439e+00
1.1977352720e+00
1.1980080528e+00
1.1983203701e+00
1.1986650650e+00
1.1990345802e+00
1.1994211649e+00
1.1998172166e+00
1.2002154475e+00
1.2006091704e+00
1.2009923937e+00
1.2013600168e+00
1.2017078387e+00
1.2020326537e+00
1.2023321797e+00
1.2026050662e+00
1.2028507649e+00
1.2030694758e+00
1.2032619914e+00
1.2034296122e+00
1.2035739921e+00
1.2036970534e+00
1.2038008538e+00
1.2038875194e+00
1.2039591458e+00
1.2040177569e+00
1.2040652418e+00
1.2041033399e+00
1.2041336079e+00
1.2041574258e+00
1.2041759858e+00
1.2041903113e+00
1.2042012591e+00
1.2042095443e+00
1.2042157482e+00
1.2042203441e+00
1.2042237061e+00
1.2042261319e+00
1.2042278506e+00
1.2042290411e+00
1.2042298370e+00
1.2042303412e+00
1.2042306286e+00
1.2042307560e+00
1.2042307636e+00
1.2042306824e+00
1.2042305333e+00
1.2042303332e+00
1.2042300936e+00
1.2042298245e+00
1.2042295335e+00
1.2042292290e+00
1.2042289187e+00
1.2042286130e+00
1.2042283243e+00
1.2042280697e+00
1.2042278714e+00
1.2042277599e+00
1.2042277751e+00
1.2042279691e+00
1.2042284082e+00
1.2042291755e+00
1.2042303716e+00
1.2042321156e+00
1.2042345435e+00
1.2042378050e+00
1.2042420585e+00
1.2042474619e+00
1.2042541626e+00
1.2042622836e+00
1.2042719096e+00
1.2042830717e+00
1.2042957345e+00
1.2043097847e+00
1.2043250262e+00
1.2043411798e+00
1.2043578915e+00
1.2043747468e+00
1.2043912936e+00
1.2044070684e+00
1.2044216280e+00
1.2044345789e+00
1.2044456073e+00
1.2044545001e+00
1.2044611629e+00
1.2044656241e+00
1.2044680369e+00
1.2044686653e+00
1.2044678738e+00
1.2044661033e+00
1.2044638569e+00
1.2044616781e+00
1.2044601430e+00
1.2044598478e+00
1.2044614096e+00
1.2044654548e+00
1.2045399241e+00
1.1974746787e+00
1.1975645461e+00
1.1976784835e+00
1.1978453415e+00
1.1980610324e+00
1.1983203701e+00
1.1986172224e+00
1.1989448224e+00
1.1992959540e+00
1.1996632937e+00
1.2000395817e+00
1.2004179355e+00
1.2007919663e+00
1.2011560209e+00
1.2015052213e+00
1.2018356120e+00
1.2021441199e+00
1.2024286078e+00
1.2026877696e+00
1.2029211105e+00
1.2031288018e+00
1.2033116171e+00
1.2034707770e+00
1.2036078692e+00
1.2037247073e+00
1.2038232592e+00
1.2039055342e+00
1.2039735330e+00
1.2040291696e+00
1.2040742463e+00
1.2041104080e+00
1.2041391396e+00
1.2041617456e+00
1.2041793635e+00
1.2041929599e+00
1.2042033529e+00
1.2042112168e+00
1.2042171076e+00
1.2042214706e+00
1.2042246642e+00
1.2042269679e+00
1.2042286018e+00
1.2042297329e+00
1.2042304906e+00
1.2042309701e+00
1.2042312445e+00
1.2042313658e+00
1.2042313739e+00
1.2042312966e+00
1.2042311552e+00
1.2042309645e+00
1.2042307365e+00
1.2042304801e+00
1.2042302035e+00
1.2042299140e+00
1.2042296203e+00
1.2042293324e+00
1.2042290637e+00
1.2042288314e+00
1.2042286593e+00
1.2042285792e+00
1.2042286330e+00
1.2042288756e+00
1.2042293770e+00
1.2042302245e+00
1.2042315239e+00
1.2042333999e+00
1.2042359948e+00
1.2042394646e+00
1.2042439729e+00
1.2042496819e+00
1.2042567406e+00
1.2042652707e+00
1.2042753509e+00
1.2042870016e+00
1.2043001707e+00
1.2043147228e+00
1.2043304344e+00
1.2043469947e+00
1.2043640155e+00
1.2043810480e+00
1.2043976078e+00
1.2044132048e+00
1.2044273755e+00
1.2044397177e+00
1.2044499181e+00
1.2044577786e+00
1.2044632289e+00
1.2044663357e+00
1.2044672956e+00
1.2044664278e+00
1.2044641508e+00
1.2044609666e+00
1.2044574323e+00
1.2044541446e+00
1.2044517174e+00
1.2044507718e+00
1.2044519189e+00
1.2044557466e+00
1.2045270216e+00
1.1978656425e+00
1.1979524723e+00
1.1980599605e+00
1.1982172969e+00
1.1984206404e+00
1.1986650650e+00
1.1989448224e+00
1.1992534984e+00
1.1995843339e+00
1.1999303901e+00
1.2002848707e+00
1.2006412531e+00
1.2009935615e+00
1.2013364347e+00
1.2016653173e+00
1.2019764517e+00
1.2022669783e+00
1.2025348575e+00
1.2027788891e+00
1.2029985848e+00
1.2031941309e+00
1.2033662383e+00
1.2035160759e+00
1.2036451252e+00
1.2037551093e+00
1.2038478700e+00
1.2039253115e+00
1.2039893085e+00
1.2040416724e+00
1.2040840926e+00
1.2041181252e+00
1.2041451618e+00
1.2041664364e+00
1.2041830144e+00
1.2041958105e+00
1.2042055902e+00
1.2042129922e+00
1.2042185357e+00
1.2042226434e+00
1.2042256491e+00
1.2042278187e+00
1.2042293565e+00
1.2042304222e+00
1.2042311350e+00
1.2042315866e+00
1.2042318436e+00
1.2042319571e+00
1.2042319626e+00
1.2042318879e+00
1.2042317518e+00
1.2042315694e+00
1.2042313509e+00
1.2042311060e+00
1.2042308415e+00
1.2042305656e+00
1.2042302864e+00
1.2042300144e+00
1.2042297629e+00
1.2042295503e+00
1.2042294010e+00
1.2042293482e+00
1.2042294358e+00
1.2042297211e+00
1.2042302773e+00
1.2042311957e+00
1.2042325870e+00
1.2042345814e+00
1.2042373270e+00
1.2042409860e+00
1.2042457275e+00
1.2042517182e+00
1.2042591094e+00
1.2042680224e+00
1.2042785315e+00
1.2042906479e+00
1.2043043049e+00
1.2043193475e+00
1.2043355268e+00
1.2043525028e+00
1.2043698550e+00
1.2043871019e+00
1.2044037275e+00
1.2044192144e+00
1.2044330793e+00
1.2044449074e+00
1.2044543855e+00
1.2044613244e+00
1.2044656766e+00
1.2044675388e+00
1.2044671504e+00
1.2044648749e+00
1.2044611843e+00
1.2044566293e+00
1.2044518190e+00
1.2044473911e+00
1.2044439959e+00
1.2044422718e+00
1.2044428333e+00
1.2044462444e+00
1.2045140818e+00
1.1982850697e+00
1.1983685291e+00
1.1984690408e+00
1.1986161296e+00
1.1988061689e+00
1.1990345802e+00
1.1992959540e+00
1.1995843339e+00
1.1998933651e+00
1.2002166082e+00
1.2005476737e+00
1.2008805132e+00
1.2012095063e+00
1.2015296881e+00
1.2018367689e+00
1.2021272781e+00
1.2023985149e+00
1.2026486082e+00
1.2028764121e+00
1.2030814987e+00
1.2032640217e+00
1.2034246674e+00
1.2035645112e+00
1.2036849540e+00
1.2037875918e+00
1.2038741579e+00
1.2039464196e+00
1.2040061378e+00
1.2040549950e+00
1.2040945765e+00
1.2041263277e+00
1.2041515542e+00
1.2041714018e+00
1.2041868701e+00
1.2041988079e+00
1.2042079336e+00
1.2042148393e+00
1.2042200130e+00
1.2042238454e+00
1.2042266511e+00
1.2042286750e+00
1.2042301105e+00
1.2042311038e+00
1.2042317684e+00
1.2042321876e+00
1.2042324257e+00
1.2042325281e+00
1.2042325300e+00
1.2042324555e+00
1.2042323237e+00
1.2042321474e+00
1.2042319376e+00
1.2042317020e+00
1.2042314485e+00
1.2042311842e+00
1.2042309177e+00
1.2042306593e+00
1.2042304230e+00
1.2042302272e+00
1.2042300975e+00
1.2042300679e+00
1.2042301843e+00
1.2042305061e+00
1.2042311095e+00
1.2042320894e+00
1.2042335609e+00
1.2042356594e+00
1.2042385388e+00
1.2042423671e+00
1.2042473192e+00
1.2042535663e+00
1.2042612632e+00
1.2042705311e+00
1.2042814417e+00
1.2042939987e+00
1.2043081232e+00
1.2043236423e+00
1.2043402847e+00
1.2043576830e+00
1.2043753868e+00
1.2043928827e+00
1.2044096242e+00
1.2044250666e+00
1.2044387045e+00
1.2044501104e+00
1.2044589658e+00
1.2044650892e+00
1.2044684487e+00
1.2044691697e+00
1.2044675248e+00
1.2044639218e+00
1.2044588755e+00
1.2044529859e+00
1.2044469038e+00
1.2044413095e+00
1.2044368822e+00
1.2044342841e+00
1.2044341350e+00
1.2044369957e+00
1.2045012715e+00
1.1987241078e+00
1.1988039555e+00
1.1988971476e+00
1.1990334631e+00
1.1992095616e+00
1.1994211649e+00
1.1996632937e+00
1.1999303901e+00
1.2002166082e+00
1.2005159417e+00
1.2008225171e+00
1.2011306918e+00
1.2014353049e+00
1.2017317207e+00
1.2020160086e+00
1.2022849213e+00
1.2025359950e+00
1.2027674692e+00
1.2029783140e+00
1.2031681104e+00
1.2033370263e+00
1.2034856785e+00
1.2036150830e+00
1.2037265217e+00
1.2038214881e+00
1.2039015746e+00
1.2039684293e+00
1.2040236724e+00
1.2040688706e+00
1.2041054833e+00
1.2041348555e+00
1.2041581888e+00
1.2041765492e+00
1.2041908565e+00
1.2042019004e+00
1.2042103413e+00
1.2042167308e+00
1.2042215163e+00
1.2042250626e+00
1.2042276574e+00
1.2042295302e+00
1.2042308568e+00
1.2042317748e+00
1.2042323870e+00
1.2042327725e+00
1.2042329885e+00
1.2042330791e+00
1.2042330749e+00
1.2042329999e+00
1.2042328703e+00
1.2042326994e+00
1.2042324961e+00
1.2042322689e+00
1.2042320245e+00
1.2042317704e+00
1.2042315146e+00
1.2042312680e+00
1.2042310443e+00
1.2042308628e+00
1.2042307492e+00
1.2042307391e+00
1.2042308793e+00
1.2042312314e+00
1.2042318742e+00
1.2042329059e+00
1.2042344456e+00
1.2042366337e+00
1.2042396294e+00
1.2042436064e+00
1.2042487452e+00
1.2042552225e+00
1.2042631962e+00
1.2042727896e+00
1.2042840721e+00
1.2042970425e+00
1.2043116111e+00
1.2043275904e+00
1.2043446881e+00
1.2043625127e+00
1.2043805848e+00
1.2043983613e+00
1.2044152655e+00
1.2044307251e+00
1.2044442121e+00
1.2044552824e+00
1.2044636112e+00
1.2044690183e+00
1.2044714859e+00
1.2044711598e+00
1.2044683452e+00
1.2044634844e+00
1.2044571361e+00
1.2044499403e+00
1.2044425924e+00
1.2044358077e+00
1.2044303003e+00
1.2044267540e+00
1.2044258061e+00
1.2044280206e+00
1.2044886897e+00
1.1991740434e+00
1.1992501467e+00
1.1993358072e+00
1.1994610726e+00
1.1996228432e+00
1.1998172166e+00
1.2000395817e+00
1.2002848707e+00
1.2005476737e+00
1.2008225171e+00
1.2011039659e+00
1.2013868829e+00
1.2016664899e+00
1.2019385734e+00
1.2021994890e+00
1.2024462946e+00
1.2026766977e+00
1.2028891158e+00
1.2030825785e+00
1.2032567292e+00
1.2034117013e+00
1.2035480840e+00
1.2036667931e+00
1.2037690230e+00
1.2038561310e+00
1.2039295926e+00
1.2039909094e+00
1.2040415788e+00
1.2040830299e+00
1.2041166098e+00
1.2041435455e+00
1.2041649458e+00
1.2041817830e+00
1.2041949057e+00
1.2042050335e+00
1.2042127764e+00
1.2042186360e+00
1.2042230264e+00
1.2042262783e+00
1.2042286588e+00
1.2042303751e+00
1.2042315910e+00
1.2042324303e+00
1.2042329892e+00
1.2042333382e+00
1.2042335317e+00
1.2042336082e+00
1.2042335975e+00
1.2042335200e+00
1.2042333921e+00
1.2042332246e+00
1.2042330272e+00
1.2042328066e+00
1.2042325702e+00
1.2042323244e+00
1.2042320779e+00
1.2042318409e+00
1.2042316278e+00
1.2042314576e+00
1.2042313572e+00
1.2042313624e+00
1.2042315216e+00
1.2042318978e+00
1.2042325722e+00
1.2042336458e+00
1.2042352417e+00
1.2042375043e+00
1.2042405981e+00
1.2042447024e+00
1.2042500036e+00
1.2042566832e+00
1.2042649039e+00
1.2042747910e+00
1.2042864143e+00
1.2042997679e+00
1.2043147551e+00
1.2043311745e+00
1.2043487170e+00
1.2043669676e+00
1.2043854217e+00
1.2044035065e+00
1.2044206165e+00
1.2044361512e+00
1.2044495584e+00
1.2044603763e+00
1.2044682689e+00
1.2044730554e+00
1.2044747248e+00
1.2044734421e+00
1.2044695363e+00
1.2044634849e+00
1.2044558815e+00
1.2044474087e+00
1.2044387992e+00
1.2044308090e+00
1.2044241831e+00
1.2044196360e+00
1.2044178238e+00
1.2044193277e+00
1.2044763984e+00
1.1996265925e+00
1.1996988843e+00
1.1997769671e+00
1.1998910863e+00
1.2000384421e+00
1.2002154475e+00
1.2004179355e+00
1.2006412531e+00
1.2008805132e+00
1.2011306918e+00
1.2013868829e+00
1.2016443698e+00
1.2018988452e+00
1.2021464369e+00
1.2023838672e+00
1.2026084260e+00
1.2028180622e+00
1.2030113084e+00
1.2031873114e+00
1.2033457244e+00
1.2034866936e+00
1.2036107370e+00
1.2037187078e+00
1.2038116782e+00
1.2038908987e+00
1.2039577000e+00
1.2040134601e+00
1.2040595320e+00
1.2040972246e+00
1.2041277560e+00
1.2041522491e+00
1.2041717063e+00
1.2041870174e+00
1.2041989488e+00
1.2042081597e+00
1.2042152001e+00
1.2042205299e+00
1.2042245218e+00
1.2042274799e+00
1.2042296434e+00
1.2042312036e+00
1.2042323068e+00
1.2042330677e+00
1.2042335714e+00
1.2042338842e+00
1.2042340533e+00
1.2042341157e+00
1.2042340967e+00
1.2042340165e+00
1.2042338885e+00
1.2042337240e+00
1.2042335306e+00
1.2042333159e+00
1.2042330856e+00
1.2042328470e+00
1.2042326077e+00
1.2042323787e+00
1.2042321737e+00
1.2042320126e+00
1.2042319220e+00
1.2042319388e+00
1.2042321119e+00
1.2042325061e+00
1.2042332042e+00
1.2042343100e+00
1.2042359495e+00
1.2042382715e+00
1.2042414450e+00
1.2042456549e+00
1.2042510927e+00
1.2042579462e+00
1.2042663822e+00