# vtk DataFile Version 2.0
Blank
ASCII
DATASET STRUCTURED_GRID
DIMENSIONS 101 101 2
POINTS 20402 float
0.0000000000e+00 0.0000000000e+00 0.0000000000e+00
1.0000000000e-02 0.0000000000e+00 0.0000000000e+00
2.0000000000e-02 0.0000000000e+00 0.0000000000e+00
3.0000000000e-02 0.0000000000e+00 0.0000000000e+00
4.0000000000e-02 0.0000000000e+00 0.0000000000e+00
5.0000000000e-02 0.0000000000e+00 0.0000000000e+00
6.0000000000e-02 0.0000000000e+00 0.0000000000e+00
7.0000000000e-02 0.0000000000e+00 0.0000000000e+00
8.0000000000e-02 0.0000000000e+00 0.0000000000e+00
9.0000000000e-02 0.0000000000e+00 0.0000000000e+00
1.0000000000e-01 0.0000000000e+00 0.0000000000e+00
1.1000000000e-01 0.0000000000e+00 0.0000000000e+00
1.2000000000e-01 0.0000000000e+00 0.0000000000e+00
1.3000000000e-01 0.0000000000e+00 0.0000000000e+00
1.4000000000e-01 0.0000000000e+00 0.0000000000e+00
1.5000000000e-01 0.0000000000e+00 0.0000000000e+00
1.6000000000e-01 0.0000000000e+00 0.0000000000e+00
1.7000000000e-01 0.0000000000e+00 0.0000000000e+00
1.8000000000e-01 0.0000000000e+00 0.0000000000e+00
1.9000000000e-01 0.0000000000e+00 0.0000000000e+00
2.0000000000e-01 0.0000000000e+00 0.0000000000e+00
2.1000000000e-01 0.0000000000e+00 0.0000000000e+00
2.2000000000e-01 0.0000000000e+00 0.0000000000e+00
2.3000000000e-01 0.0000000000e+00 0.0000000000e+00
2.4000000000e-01 0.0000000000e+00 0.0000000000e+00
2.5000000000e-01 0.0000000000e+00 0.0000000000e+00
2.6000000000e-01 0.0000000000e+00 0.0000000000e+00
2.7000000000e-01 0.0000000000e+00 0.0000000000e+00
2.8000000000e-01 0.0000000000e+00 0.0000000000e+00
2.9000000000e-01 0.0000000000e+00 0.0000000000e+00
3.0000000000e-01 0.0000000000e+00 0.0000000000e+00
3.1000000000e-01 0.0000000000e+00 0.0000000000e+00
3.2000000000e-01 0.0000000000e+00 0.0000000000e+00
3.3000000000e-01 0.0000000000e+00 0.0000000000e+00
3.4000000000e-01 0.0000000000e+00 0.0000000000e+00
3.5000000000e-01 0.0000000000e+00 0.0000000000e+00
3.6000000000e-01 0.0000000000e+00 0.0000000000e+00
3.7000000000e-01 0.0000000000e+00 0.0000000000e+00
3.8000000000e-01 0.0000000000e+00 0.0000000000e+00
3.9000000000e-01 0.0000000000e+00 0.0000000000e+00
4.0000000000e-01 0.0000000000e+00 0.0000000000e+00
4.1000000000e-01 0.0000000000e+00 0.0000000000e+00
4.2000000000e-01 0.0000000000e+00 0.0000000000e+00
4.3000000000e-01 0.0000000000e+00 0.0000000000e+00
4.4000000000e-01 0.0000000000e+00 0.0000000000e+00
4.5000000000e-01 0.0000000000e+00 0.0000000000e+00
4.6000000000e-01 0.0000000000e+00 0.0000000000e+00
4.7000000000e-01 0.0000000000e+00 0.0000000000e+00
4.8000000000e-01 0.0000000000e+00 0.0000000000e+00
4.9000000000e-01 0.0000000000e+00 0.0000000000e+00
5.0000000000e-01 0.0000000000e+00 0.0000000000e+00
5.1000000000e-01 0.0000000000e+00 0.0000000000e+00
5.2000000000e-01 0.0000000000e+00 0.0000000000e+00
5.3000000000e-01 0.0000000000e+00 0.0000000000e+00
5.4000000000e-01 0.0000000000e+00 0.0000000000e+00
5.5000000000e-01 0.0000000000e+00 0.0000000000e+00
5.6000000000e-01 0.0000000000e+00 0.0000000000e+00
5.7000000000e-01 0.0000000000e+00 0.0000000000e+00
5.8000000000e-01 0.0000000000e+00 0.0000000000e+00
5.9000000000e-01 0.0000000000e+00 0.0000000000e+00
6.0000000000e-01 0.0000000000e+00 0.0000000000e+00
6.1000000000e-01 0.0000000000e+00 0.0000000000e+00
6.2000000000e-01 0.0000000000e+00 0.0000000000e+00
6.3000000000e-01 0.0000000000e+00 0.0000000000e+00
6.4000000000e-01 0.0000000000e+00 0.0000000000e+00
6.5000000000e-01 0.0000000000e+00 0.0000000000e+00
6.6000000000e-01 0.0000000000e+00 0.0000000000e+00
6.7000000000e-01 0.0000000000e+00 0.0000000000e+00
6.8000000000e-01 0.0000000000e+00 0.0000000000e+00
6.9000000000e-01 0.0000000000e+00 0.0000000000e+00
7.0000000000e-01 0.0000000000e+00 0.0000000000e+00
7.1000000000e-01 0.0000000000e+00 0.0000000000e+00
7.2000000000e-01 0.0000000000e+00 0.0000000000e+00
7.3000000000e-01 0.0000000000e+00 0.0000000000e+00
7.4000000000e-01 0.0000000000e+00 0.0000000000e+00
7.5000000000e-01 0.0000000000e+00 0.0000000000e+00
7.6000000000e-01 0.0000000000e+00 0.0000000000e+00
7.7000000000e-01 0.0000000000e+00 0.0000000000e+00
7.8000000000e-01 0.0000000000e+00 0.0000000000e+00
7.9000000000e-01 0.0000000000e+00 0.0000000000e+00
8.0000000000e-01 0.0000000000e+00 0.0000000000e+00
8.1000000000e-01 0.0000000000e+00 0.0000000000e+00
8.2000000000e-01 0.0000000000e+00 0.0000000000e+00
8.3000000000e-01 0.0000000000e+00 0.0000000000e+00
8.4000000000e-01 0.0000000000e+00 0.0000000000e+00
8.5000000000e-01 0.0000000000e+00 0.0000000000e+00
8.6000000000e-01 0.0000000000e+00 0.0000000000e+00
8.7000000000e-01 0.0000000000e+00 0.0000000000e+00
8.8000000000e-01 0.0000000000e+00 0.0000000000e+00
8.9000000000e-01 0.0000000000e+00 0.0000000000e+00
9.0000000000e-01 0.0000000000e+00 0.0000000000e+00
9.1000000000e-01 0.0000000000e+00 0.0000000000e+00
9.2000000000e-01 0.0000000000e+00 0.0000000000e+00
9.3000000000e-01 0.0000000000e+00 0.0000000000e+00
9.4000000000e-01 0.0000000000e+00 0.0000000000e+00
9.5000000000e-01 0.0000000000e+00 0.0000000000e+00
9.6000000000e-01 0.0000000000e+00 0.0000000000e+00
9.7000000000e-01 0.0000000000e+00 0.0000000000e+00
9.8000000000e-01 0.0000000000e+00 0.0000000000e+00
9.9000000000e-01 0.0000000000e+00 0.0000000000e+00
1.0000000000e+00 0.0000000000e+00 0.0000000000e+00
0.0000000000e+00 1.0000000000e-02 0.0000000000e+00
1.0000000000e-02 1.0000000000e-02 0.0000000000e+00
2.0000000000e-02 1.0000000000e-02 0.0000000000e+00
3.0000000000e-02 1.0000000000e-02 0.0000000000e+00
4.0000000000e-02 1.0000000000e-02 0.0000000000e+00
5.0000000000e-02 1.0000000000e-02 0.0000000000e+00
6.0000000000e-02 1.0000000000e-02 0.0000000000e+00
7.0000000000e-02 1.0000000000e-02 0.0000000000e+00
8.0000000000e-02 1.0000000000e-02 0.0000000000e+00
9.0000000000e-02 1.0000000000e-02 0.0000000000e+00
1.0000000000e-01 1.0000000000e-02 0.0000000000e+00
1.1000000000e-01 1.0000000000e-02 0.0000000000e+00
1.2000000000e-01 1.0000000000e-02 0.0000000000e+00
1.3000000000e-01 1.0000000000e-02 0.0000000000e+00
1.4000000000e-01 1.0000000000e-02 0.0000000000e+00
1.5000000000e-01 1.0000000000e-02 0.0000000000e+00
1.6000000000e-01 1.0000000000e-02 0.0000000000e+00
1.7000000000e-01 1.0000000000e-02 0.0000000000e+00
1.8000000000e-01 1.0000000000e-02 0.0000000000e+00
1.9000000000e-01 1.0000000000e-02 0.0000000000e+00
2.0000000000e-01 1.0000000000e-02 0.0000000000e+00
2.1000000000e-01 1.0000000000e-02 0.0000000000e+00
2.2000000000e-01 1.0000000000e-02 0.0000000000e+00
2.3000000000e-01 1.0000000000e-02 0.0000000000e+00
2.4000000000e-01 1.0000000000e-02 0.0000000000e+00
2.5000000000e-01 1.0000000000e-02 0.0000000000e+00
2.6000000000e-01 1.0000000000e-02 0.0000000000e+00
2.7000000000e-01 1.0000000000e-02 0.0000000000e+00
2.8000000000e-01 1.0000000000e-02 0.0000000000e+00
2.9000000000e-01 1.0000000000e-02 0.0000000000e+00
3.0000000000e-01 1.0000000000e-02 0.0000000000e+00
3.1000000000e-01 1.0000000000e-02 0.0000000000e+00
3.2000000000e-01 1.0000000000e-02 0.0000000000e+00
3.3000000000e-01 1.0000000000e-02 0.0000000000e+00
3.4000000000e-01 1.0000000000e-02 0.0000000000e+00
3.5000000000e-01 1.0000000000e-02 0.0000000000e+00
3.6000000000e-01 1.0000000000e-02 0.0000000000e+00
3.7000000000e-01 1.0000000000e-02 0.0000000000e+00
3.8000000000e-01 1.0000000000e-02 0.0000000000e+00
3.9000000000e-01 1.0000000000e-02 0.0000000000e+00
4.0000000000e-01 1.0000000000e-02 0.0000000000e+00
4.1000000000e-01 1.0000000000e-02 0.0000000000e+00
4.2000000000e-01 1.0000000000e-02 0.0000000000e+00
4.3000000000e-01 1.0000000000e-02 0.0000000000e+00
4.4000000000e-01 1.0000000000e-02 0.0000000000e+00
4.5000000000e-01 1.0000000000e-02 0.0000000000e+00
4.6000000000e-01 1.0000000000e-02 0.0000000000e+00
4.7000000000e-01 1.0000000000e-02 0.0000000000e+00
4.8000000000e-01 1.0000000000e-02 0.0000000000e+00
4.9000000000e-01 1.0000000000e-02 0.0000000000e+00
5.0000000000e-01 1.0000000000e-02 0.0000000000e+00
5.1000000000e-01 1.0000000000e-02 0.0000000000e+00
5.2000000000e-01 1.0000000000e-02 0.0000000000e+00
5.3000000000e-01 1.0000000000e-02 0.0000000000e+00
5.4000000000e-01 1.0000000000e-02 0.0000000000e+00
5.5000000000e-01 1.0000000000e-02 0.0000000000e+00
5.6000000000e-01 1.0000000000e-02 0.0000000000e+00
5.7000000000e-01 1.0000000000e-02 0.0000000000e+00
5.8000000000e-01 1.0000000000e-02 0.0000000000e+00
5.9000000000e-01 1.0000000000e-02 0.0000000000e+00
6.0000000000e-01 1.0000000000e-02 0.0000000000e+00
6.1000000000e-01 1.0000000000e-02 0.0000000000e+00
6.2000000000e-01 1.0000000000e-02 0.0000000000e+00
6.3000000000e-01 1.0000000000e-02 0.0000000000e+00
6.4000000000e-01 1.0000000000e-02 0.0000000000e+00
6.5000000000e-01 1.0000000000e-02 0.0000000000e+00
6.6000000000e-01 1.0000000000e-02 0.0000000000e+00
6.7000000000e-01 1.0000000000e-02 0.0000000000e+00
6.8000000000e-01 1.0000000000e-02 0.0000000000e+00
6.9000000000e-01 1.0000000000e-02 0.0000000000e+00
7.0000000000e-01 1.0000000000e-02 0.0000000000e+00
7.1000000000e-01 1.0000000000e-02 0.0000000000e+00
7.2000000000e-01 1.0000000000e-02 0.0000000000e+00
7.3000000000e-01 1.0000000000e-02 0.0000000000e+00
7.4000000000e-01 1.0000000000e-02 0.0000000000e+00
7.5000000000e-01 1.0000000000e-02 0.0000000000e+00
7.6000000000e-01 1.0000000000e-02 0.0000000000e+00
7.7000000000e-01 1.0000000000e-02 0.0000000000e+00
7.8000000000e-01 1.0000000000e-02 0.0000000000e+00
7.9000000000e-01 1.0000000000e-02 0.0000000000e+00
8.0000000000e-01 1.0000000000e-02 0.0000000000e+00
8.1000000000e-01 1.0000000000e-02 0.0000000000e+00
8.2000000000e-01 1.0000000000e-02 0.0000000000e+00
8.3000000000e-01 1.0000000000e-02 0.0000000000e+00
8.4000000000e-01 1.0000000000e-02 0.0000000000e+00
8.5000000000e-01 1.0000000000e-02 0.0000000000e+00
8.6000000000e-01 1.0000000000e-02 0.0000000000e+00
8.7000000000e-01 1.0000000000e-02 0.0000000000e+00
8.8000000000e-01 1.0000000000e-02 0.0000000000e+00
8.9000000000e-01 1.0000000000e-02 0.0000000000e+00
9.0000000000e-01 1.0000000000e-02 0.0000000000e+00
9.1000000000e-01 1.0000000000e-02 0.0000000000e+00
9.2000000000e-01 1.0000000000e-02 0.0000000000e+00
[...]
CELL_DATA 10000

SCALARS massDensity float
LOOKUP_TABLE default
1.2012228106e+00
1.2012310355e+00
1.2012513485e+00
1.2012814742e+00
1.2013211446e+00
1.2013699937e+00
1.2014275647e+00
1.2014933182e+00
1.2015666424e+00
1.2016468635e+00
1.2017332574e+00
1.2018250601e+00
1.2019214801e+00
1.2020217093e+00
1.2021249350e+00
1.2022303503e+00
1.2023371646e+00
1.2024446134e+00
1.2025519667e+00
1.2026585366e+00
1.2027636840e+00
1.2028668238e+00
1.2029674290e+00
1.2030650337e+00
1.2031592346e+00
1.2032496916e+00
1.2033361277e+00
1.2034183269e+00
1.2034961325e+00
1.2035694434e+00
1.2036382112e+00
1.2037024350e+00
1.2037621578e+00
1.2038174612e+00
1.2038684604e+00
1.2039152993e+00
1.2039581460e+00
1.2039971873e+00
1.2040326249e+00
1.2040646707e+00
1.2040935432e+00
1.2041194637e+00
1.2041426536e+00
1.2041633313e+00
1.2041817100e+00
1.2041979957e+00
1.2042123859e+00
1.2042250679e+00
1.2042362186e+00
1.2042460031e+00
1.2042545752e+00
1.2042620765e+00
1.2042686373e+00
1.2042743761e+00
1.2042794006e+00
1.2042838079e+00
1.2042876849e+00
1.2042911094e+00
1.2042941503e+00
1.2042968686e+00
1.2042993177e+00
1.2043015443e+00
1.2043035891e+00
1.2043054870e+00
1.2043072680e+00
1.2043089574e+00
1.2043105765e+00
1.2043121429e+00
1.2043136709e+00
1.2043151718e+00
1.2043166539e+00
1.2043181234e+00
1.2043195842e+00
1.2043210379e+00
1.2043224845e+00
1.2043239224e+00
1.2043253484e+00
1.2043267579e+00
1.2043281454e+00
1.2043295042e+00
1.2043308269e+00
1.2043321054e+00
1.2043333313e+00
1.2043344955e+00
1.2043355890e+00
1.2043366026e+00
1.2043375272e+00
1.2043383537e+00
1.2043390733e+00
1.2043396771e+00
1.2043401564e+00
1.2043405016e+00
1.2043407024e+00
1.2043407458e+00
1.2043406151e+00
1.2043402867e+00
1.2043397282e+00
1.2043388957e+00
1.2043377381e+00
1.2043406942e+00
1.2012310355e+00
1.2012389464e+00
1.2012590691e+00
1.2012890727e+00
1.2013286587e+00
1.2013774427e+00
1.2014349561e+00
1.2015006529e+00
1.2015739170e+00
1.2016540733e+00
1.2017403963e+00
1.2018321227e+00
1.2019284615e+00
1.2020286061e+00
1.2021317450e+00
1.2022370732e+00
1.2023438015e+00
1.2024511671e+00
1.2025584412e+00
1.2026649374e+00
1.2027700172e+00
1.2028730964e+00
1.2029736483e+00
1.2030712072e+00
1.2031653695e+00
1.2032557949e+00
1.2033422056e+00
1.2034243850e+00
1.2035021750e+00
1.2035754740e+00
1.2036442317e+00
1.2037084465e+00
1.2037681599e+00
1.2038234521e+00
1.2038744370e+00
1.2039212577e+00
1.2039640805e+00
1.2040030918e+00
1.2040384919e+00
1.2040704921e+00
1.2040993100e+00
1.2041251666e+00
1.2041482826e+00
1.2041688762e+00
1.2041871601e+00
1.2042033404e+00
1.2042176142e+00
1.2042301690e+00
1.2042411815e+00
1.2042508171e+00
1.2042592293e+00
1.2042665602e+00
1.2042729397e+00
1.2042784869e+00
1.2042833091e+00
1.2042875036e+00
1.2042911575e+00
1.2042943485e+00
1.2042971455e+00
1.2042996096e+00
1.2043017942e+00
1.2043037462e+00
1.2043055063e+00
1.2043071097e+00
1.2043085867e+00
1.2043099632e+00
1.2043112608e+00
1.2043124981e+00
1.2043136901e+00
1.2043148491e+00
1.2043159849e+00
1.2043171052e+00
1.2043182154e+00
1.2043193191e+00
1.2043204185e+00
1.2043215141e+00
1.2043226050e+00
1.2043236892e+00
1.2043247637e+00
1.2043258244e+00
1.2043268663e+00
1.2043278837e+00
1.2043288704e+00
1.2043298194e+00
1.2043307235e+00
1.2043315751e+00
1.2043323664e+00
1.2043330894e+00
1.2043337360e+00
1.2043342980e+00
1.2043347673e+00
1.2043351353e+00
1.2043353930e+00
1.2043355308e+00
1.2043355377e+00
1.2043354015e+00
1.2043351090e+00
1.2043346485e+00
1.2043340174e+00
1.2043380243e+00
1.2012513485e+00
1.2012590691e+00
1.2012789611e+00
1.2013087037e+00
1.2013479911e+00
1.2013964337e+00
1.2014535609e+00
1.2015188262e+00
1.2015916157e+00
1.2016712561e+00
1.2017570261e+00
1.2018481659e+00
1.2019438896e+00
1.2020433949e+00
1.2021458758e+00
1.2022505318e+00
1.2023565793e+00
1.2024632597e+00
1.2025698495e+00
1.2026756661e+00
1.2027800758e+00
1.2028824975e+00
1.2029824083e+00
1.2030793451e+00
1.2031729072e+00
1.2032627563e+00
1.2033486163e+00
1.2034302718e+00
1.2035075661e+00
1.2035803975e+00
1.2036487166e+00
1.2037125211e+00
1.2037718525e+00
1.2038267902e+00
1.2038774476e+00
1.2039239663e+00
1.2039665121e+00
1.2040052694e+00
1.2040404377e+00
1.2040722267e+00
1.2041008527e+00
1.2041265350e+00
1.2041494933e+00
1.2041699439e+00
1.2041880987e+00
1.2042041620e+00
1.2042183302e+00
1.2042307893e+00
1.2042417152e+00
1.2042512719e+00
1.2042596124e+00
1.2042668777e+00
1.2042731972e+00
1.2042786888e+00
1.2042834597e+00
1.2042876064e+00
1.2042912155e+00
1.2042943643e+00
1.2042971213e+00
1.2042995472e+00
1.2043016953e+00
1.2043036122e+00
1.2043053384e+00
1.2043069091e+00
1.2043083545e+00
1.2043097005e+00
1.2043109688e+00
1.2043121781e+00
1.2043133436e+00
1.2043144780e+00
1.2043155913e+00
1.2043166915e+00
1.2043177845e+00
1.2043188744e+00
1.2043199636e+00
1.2043210533e+00
1.2043221430e+00
1.2043232312e+00
1.2043243152e+00
1.2043253911e+00
1.2043264544e+00
1.2043274993e+00
1.2043285197e+00
1.2043295085e+00
1.2043304582e+00
1.2043313608e+00
1.2043322080e+00
1.2043329911e+00
1.2043337015e+00
1.2043343301e+00
1.2043348682e+00
1.2043353069e+00
1.2043356373e+00
1.2043358510e+00
1.2043359395e+00
1.2043358957e+00
1.2043357154e+00
1.2043354008e+00
1.2043349678e+00
1.2043396010e+00
1.2012814742e+00
1.2012890727e+00
1.2013087037e+00
1.2013381058e+00
1.2013769743e+00
1.2014249209e+00
1.2014814762e+00
1.2015460974e+00
1.2016181740e+00
1.2016970385e+00
1.2017819751e+00
1.2018722311e+00
1.2019670270e+00
1.2020655687e+00
1.2021670571e+00
1.2022707000e+00
1.2023757205e+00
1.2024813682e+00
1.2025869258e+00
1.2026917180e+00
1.2027951165e+00
1.2028965466e+00
1.2029954899e+00
1.2030914883e+00
1.2031841445e+00
1.2032731238e+00
1.2033581524e+00
1.2034390173e+00
1.2035155628e+00
1.2035876886e+00
1.2036553453e+00
1.2037185309e+00
1.2037772860e+00
1.2038316896e+00
1.2038818535e+00
1.2039279181e+00
1.2039700473e+00
1.2040084239e+00
1.2040432453e+00
1.2040747191e+00
1.2041030595e+00
1.2041284838e+00
1.2041512092e+00
1.2041714504e+00
1.2041894169e+00
1.2042053114e+00
1.2042193280e+00
1.2042316514e+00
1.2042424554e+00
1.2042519030e+00
1.2042601454e+00
1.2042673224e+00
1.2042735622e+00
1.2042789817e+00
1.2042836871e+00
1.2042877739e+00
1.2042913280e+00
1.2042944261e+00
1.2042971359e+00
1.2042995178e+00
1.2043016245e+00
1.2043035024e+00
1.2043051915e+00
1.2043067269e+00
1.2043081386e+00
1.2043094524e+00
1.2043106903e+00
1.2043118706e+00
1.2043130091e+00
1.2043141183e+00
1.2043152088e+00
1.2043162887e+00
1.2043173643e+00
1.2043184402e+00
1.2043195192e+00
1.2043206029e+00
1.2043216913e+00
1.2043227832e+00
1.2043238763e+00
1.2043249672e+00
1.2043260513e+00
1.2043271233e+00
1.2043281769e+00
1.2043292049e+00
1.2043301997e+00
1.2043311529e+00
1.2043320558e+00
1.2043328990e+00
1.2043336734e+00
1.2043343694e+00
1.2043349777e+00
1.2043354891e+00
1.2043358951e+00
1.2043361877e+00
1.2043363606e+00
1.2043364096e+00
1.2043363349e+00
1.2043361436e+00
1.2043358549e+00
1.2043409848e+00
1.2013211446e+00
1.2013286587e+00
1.2013479911e+00
1.2013769743e+00
1.2014153093e+00
1.2014626116e+00
1.2015184176e+00
1.2015821892e+00
1.2016533237e+00
1.2017311603e+00
1.2018149925e+00
1.2019040759e+00
1.2019976416e+00
1.2020949047e+00
1.2021950768e+00
1.2022973750e+00
1.2024010335e+00
1.2025053106e+00
1.2026094990e+00
1.2027129314e+00
1.2028149886e+00
1.2029151026e+00
1.2030127623e+00
1.2031075149e+00
1.2031989689e+00
1.2032867933e+00
1.2033707186e+00
1.2034505337e+00
1.2035260856e+00
1.2035972745e+00
1.2036640522e+00
1.2037264163e+00
1.2037844070e+00
1.2038381019e+00
1.2038876117e+00
1.2039330744e+00
1.2039746522e+00
1.2040125251e+00
1.2040468881e+00
1.2040779459e+00
1.2041059101e+00
1.2041309950e+00
1.2041534152e+00
1.2041733823e+00
1.2041911035e+00
1.2042067785e+00
1.2042205994e+00
1.2042327481e+00
1.2042433965e+00
1.2042527054e+00
1.2042608242e+00
1.2042678909e+00
1.2042740322e+00
1.2042793635e+00
1.2042839896e+00
1.2042880049e+00
1.2042914942e+00
1.2042945332e+00
1.2042971891e+00
1.2042995212e+00
1.2043015818e+00
1.2043034167e+00
1.2043050656e+00
1.2043065631e+00
1.2043079392e+00
1.2043092193e+00
1.2043104254e+00
1.2043115759e+00
1.2043126866e+00
1.2043137702e+00
1.2043148375e+00
1.2043158968e+00
1.2043169549e+00
1.2043180167e+00
1.2043190854e+00
1.2043201629e+00
1.2043212498e+00
1.2043223452e+00
1.2043234473e+00
1.2043245527e+00
1.2043256574e+00
1.2043267560e+00
1.2043278423e+00
1.2043289091e+00
1.2043299485e+00
1.2043309518e+00
1.2043319099e+00
1.2043328131e+00
1.2043336515e+00
1.2043344150e+00
1.2043350940e+00
1.2043356788e+00
1.2043361609e+00
1.2043365327e+00
1.2043367886e+00
1.2043369258e+00
1.2043369457e+00
1.2043368559e+00
1.2043366727e+00
1.2043422090e+00
1.2013699937e+00
1.2013774427e+00
1.2013964337e+00
1.2014249209e+00
1.2014626116e+00
1.2015091288e+00
1.2015640153e+00
1.2016267420e+00
1.2016967143e+00
1.2017732826e+00
1.2018557500e+00
1.2019433850e+00
1.2020354296e+00
1.2021311123e+00
1.2022296566e+00
1.2023302930e+00
1.2024322669e+00
1.2025348498e+00
1.2026373449e+00
1.2027390966e+00
1.2028394949e+00
1.2029379818e+00
1.2030340538e+00
1.2031272663e+00
1.2032172333e+00
1.2033036300e+00
1.2033861904e+00
1.2034647076e+00
1.2035390303e+00
1.2036090611e+00
1.2036747517e+00
1.2037361002e+00
1.2037931458e+00
1.2038459650e+00
1.2038946662e+00
1.2039393858e+00
1.2039802825e+00
1.2040175340e+00
1.2040513315e+00
1.2040818770e+00
1.2041093780e+00
1.2041340457e+00
1.2041560911e+00
1.2041757225e+00
1.2041931434e+00
1.2042085509e+00
1.2042221333e+00
1.2042340703e+00
1.2042445307e+00
1.2042536728e+00
1.2042616436e+00
1.2042685791e+00
1.2042746037e+00
1.2042798313e+00
1.2042843649e+00
1.2042882976e+00
1.2042917127e+00
1.2042946848e+00
1.2042972801e+00
1.2042995569e+00
1.2043015669e+00
1.2043033550e+00
1.2043049606e+00
1.2043064179e+00
1.2043077563e+00
1.2043090012e+00
1.2043101744e+00
1.2043112942e+00
1.2043123764e+00
1.2043134339e+00
1.2043144776e+00
1.2043155162e+00
1.2043165565e+00
1.2043176040e+00
1.2043186622e+00
1.2043197335e+00
1.2043208187e+00
1.2043219175e+00
1.2043230282e+00
1.2043241480e+00
1.2043252728e+00
1.2043263976e+00
1.2043275161e+00
1.2043286212e+00
1.2043297046e+00
1.2043307576e+00
1.2043317705e+00
1.2043327332e+00
1.2043336352e+00
1.2043344660e+00
1.2043352152e+00
1.2043358730e+00
1.2043364303e+00
1.2043368795e+00
1.2043372149e+00
1.2043374337e+00
1.2043375369e+00
1.2043375303e+00
1.2043374261e+00
1.2043433069e+00
1.2014275647e+00
1.2014349561e+00
1.2014535609e+00
1.2014814762e+00
1.2015184176e+00
1.2015640153e+00
1.2016178221e+00
1.2016793181e+00
1.2017479209e+00
1.2018229920e+00
1.2019038489e+00
1.2019897728e+00
1.2020800214e+00
1.2021738369e+00
1.2022704587e+00
1.2023691313e+00
1.2024691158e+00
1.2025696966e+00
1.2026701917e+00
1.2027699572e+00
1.2028683960e+00
1.2029649602e+00
1.2030591569e+00
1.2031505492e+00
1.2032387598e+00
1.2033234691e+00
1.2034044173e+00
1.2034814006e+00
1.2035542714e+00
1.2036229335e+00
1.2036873400e+00
1.2037474886e+00
1.2038034180e+00
1.2038552028e+00
1.2039029496e+00
1.2039467915e+00
1.2039868848e+00
1.2040234030e+00
1.2040565340e+00
1.2040864754e+00
1.2041134311e+00
1.2041376079e+00
1.2041592127e+00
1.2041784497e+00
1.2041955188e+00
1.2042106128e+00
1.2042239169e+00
1.2042356068e+00
1.2042458486e+00
1.2042547972e+00
1.2042625970e+00
1.2042693813e+00
1.2042752724e+00
1.2042803816e+00
1.2042848104e+00
1.2042886498e+00
1.2042919818e+00
1.2042948795e+00
1.2042974079e+00
1.2042996242e+00
1.2043015792e+00
1.2043033171e+00
1.2043048766e+00
1.2043062912e+00
1.2043075901e+00
1.2043087983e+00
1.2043099374e+00
1.2043110256e+00
1.2043120786e+00
1.2043131095e+00
1.2043141293e+00
1.2043151468e+00
1.2043161693e+00
1.2043172023e+00
1.2043182499e+00
1.2043193148e+00
1.2043203982e+00
1.2043215001e+00
1.2043226192e+00
1.2043237530e+00
1.2043248977e+00
1.2043260483e+00
1.2043271986e+00
1.2043283414e+00
1.2043294684e+00
1.2043305704e+00
1.2043316375e+00
1.2043326590e+00
1.2043336240e+00
1.2043345213e+00
1.2043353399e+00
1.2043360693e+00
1.2043367000e+00
1.2043372237e+00
1.2043376342e+00
1.2043379278e+00
1.2043381042e+00
1.2043381669e+00
1.2043381236e+00
1.2043443063e+00
1.2014933182e+00
1.2015006529e+00
1.2015188262e+00
1.2015460974e+00
1.2015821892e+00
1.2016267420e+00
1.2016793181e+00
1.2017394104e+00
1.2018064485e+00
1.2018798094e+00
1.2019588246e+00
1.2020427926e+00
1.2021309866e+00
1.2022226670e+00
1.2023170893e+00
1.2024135162e+00
1.2025112243e+00
1.2026095156e+00
1.2027077222e+00
1.2028052163e+00
1.2029014131e+00
1.2029957782e+00
1.2030878291e+00
1.2031771399e+00
1.2032633406e+00
1.2033461201e+00
1.2034252236e+00
1.2035004527e+00
1.2035716623e+00
1.2036387591e+00
1.2037016966e+00
1.2037604730e+00
1.2038151256e+00
1.2038657278e+00
1.2039123831e+00
1.2039552221e+00
1.2039943968e+00
1.2040300773e+00
1.2040624469e+00
1.2040916989e+00
1.2041180321e+00
1.2041416491e+00
1.2041627517e+00
1.2041815398e+00
1.2041982084e+00
1.2042129464e+00
1.2042259345e+00
1.2042373447e+00
1.2042473391e+00
1.2042560694e+00
1.2042636767e+00
1.2042702913e+00
1.2042760327e+00
1.2042810101e+00
1.2042853224e+00
1.2042890587e+00
1.2042922993e+00
1.2042951156e+00
1.2042975712e+00
1.2042997222e+00
1.2043016182e+00
1.2043033026e+00
1.2043048131e+00
1.2043061829e+00
1.2043074405e+00
1.2043086106e+00
1.2043097145e+00
1.2043107702e+00
1.2043117935e+00
1.2043127973e+00
1.2043137927e+00
1.2043147889e+00
1.2043157933e+00
1.2043168117e+00
1.2043178486e+00
1.2043189070e+00
1.2043199884e+00
1.2043210933e+00
1.2043222206e+00
1.2043233681e+00
1.2043245323e+00
1.2043257083e+00
1.2043268899e+00
1.2043280699e+00
1.2043292399e+00
1.2043303903e+00
1.2043315108e+00
1.2043325903e+00
1.2043336173e+00
1.2043345800e+00
1.2043354665e+00
1.2043362659e+00
1.2043369675e+00
1.2043375625e+00
1.2043380435e+00
1.2043384058e+00
1.2043386471e+00
1.2043387685e+00
1.2043387743e+00
1.2043452285e+00
1.2015666424e+00
1.2015739170e+00
1.2015916157e+00
1.2016181740e+00
1.2016533237e+00
1.2016967143e+00
1.2017479209e+00
1.2018064485e+00
1.2018717427e+00
1.2019431952e+00
1.2020201562e+00
1.2021019410e+00
1.2021878425e+00
1.2022771392e+00
1.2023691070e+00
1.2024630263e+00
1.2025581940e+00
1.2026539288e+00
1.2027495815e+00
1.2028445392e+00
1.2029382338e+00
1.2030301435e+00
1.2031197995e+00
1.2032067860e+00
1.2032907436e+00
1.2033713684e+00
1.2034484130e+00
1.2035216834e+00
1.2035910391e+00
1.2036563883e+00
1.2037176864e+00
1.2037749311e+00
1.2038281591e+00
1.2038774412e+00
1.2039228788e+00
1.2039645986e+00
1.2040027490e+00
1.2040374952e+00
1.2040690160e+00
1.2040974993e+00
1.2041231393e+00
1.2041461327e+00
1.2041666765e+00
1.2041849652e+00
1.2042011889e+00
1.2042155313e+00
1.2042281689e+00
1.2042392690e+00
1.2042489898e+00
1.2042574788e+00
1.2042648738e+00
1.2042713016e+00
1.2042768789e+00
1.2042817118e+00
1.2042858969e+00
1.2042895211e+00
1.2042926626e+00
1.2042953911e+00
1.2042977685e+00
1.2042998497e+00
1.2043016830e+00
1.2043033106e+00
1.2043047698e+00
1.2043060927e+00
1.2043073074e+00
1.2043084381e+00
1.2043095057e+00
1.2043105282e+00
1.2043115210e+00
1.2043124972e+00
1.2043134680e+00
1.2043144426e+00
1.2043154287e+00
1.2043164324e+00
1.2043174585e+00
1.2043185101e+00
1.2043195895e+00
1.2043206971e+00
1.2043218325e+00
1.2043229935e+00
1.2043241768e+00
1.2043253778e+00
1.2043265903e+00
1.2043278069e+00
1.2043290192e+00
1.2043302173e+00
1.2043313904e+00
1.2043325270e+00
1.2043336148e+00
1.2043346415e+00
1.2043355944e+00
1.2043364616e+00
1.2043372316e+00
1.2043378945e+00
1.2043384418e+00
1.2043388671e+00
1.2043391667e+00
1.2043393393e+00
1.2043393862e+00
1.2043460900e+00
1.2016468635e+00
1.2016540733e+00
1.2016712561e+00
1.2016970385e+00
1.2017311603e+00
1.2017732826e+00
1.2018229920e+00
1.2018798094e+00
1.2019431952e+00
1.2020125604e+00
1.2020872725e+00
1.2021666681e+00
1.2022500594e+00
1.2023367472e+00
1.2024260270e+00
1.2025172017e+00
1.2026095873e+00
1.2027025237e+00
1.2027953795e+00
1.2028875609e+00
1.2029785152e+00
1.2030677372e+00
1.2031547705e+00
1.2032392127e+00
1.2033207139e+00
1.2033989801e+00
1.2034737700e+00
1.2035448965e+00
1.2036122220e+00
1.2036756584e+00
1.2037351615e+00
1.2037907297e+00
1.2038423979e+00
1.2038902355e+00
1.2039343403e+00
1.2039748356e+00
1.2040118650e+00
1.2040455893e+00
1.2040761817e+00
1.2041038248e+00
1.2041287068e+00
1.2041510190e+00
1.2041709523e+00
1.2041886958e+00
1.2042044340e+00
1.2042183454e+00
1.2042306010e+00
1.2042413637e+00
1.2042507868e+00
1.2042590139e+00
1.2042661786e+00
1.2042724043e+00
1.2042778040e+00
1.2042824811e+00
1.2042865294e+00
1.2042900333e+00
1.2042930688e+00
1.2042957036e+00
1.2042979980e+00
1.2043000052e+00
1.2043017723e+00
1.2043033406e+00
1.2043047461e+00
1.2043060203e+00
1.2043071905e+00
1.2043082805e+00
1.2043093109e+00
1.2043102994e+00
1.2043112612e+00
1.2043122094e+00
1.2043131552e+00
1.2043141080e+00
1.2043150756e+00
1.2043160645e+00
1.2043170795e+00
1.2043181244e+00
1.2043192015e+00
1.2043203118e+00
1.2043214550e+00
1.2043226292e+00
1.2043238314e+00
1.2043250569e+00
1.2043262998e+00
1.2043275526e+00
1.2043288065e+00
1.2043300515e+00
1.2043312763e+00
1.2043324689e+00
1.2043336164e+00
1.2043347055e+00
1.2043357231e+00
1.2043366559e+00
1.2043374917e+00
1.2043382193e+00
1.2043388289e+00
1.2043393128e+00
1.2043396654e+00
1.2043398834e+00
1.2043399661e+00
1.2043469034e+00
1.2017332574e+00
1.2017403963e+00
1.2017570261e+00
1.2017819751e+00
1.2018149925e+00
1.2018557500e+00
1.2019038489e+00
1.2019588246e+00
1.2020201562e+00
1.2020872725e+00
1.2021595629e+00
1.2022363839e+00
1.2023170715e+00
1.2024009474e+00
1.2024873318e+00
1.2025755484e+00
1.2026649370e+00
1.2027548573e+00
1.2028447000e+00
1.2029338892e+00
1.2030218913e+00
1.2031082165e+00
1.2031924245e+00
1.2032741245e+00
1.2033529795e+00
1.2034287037e+00
1.2035010649e+00
1.2035698808e+00
1.2036350194e+00
1.2036963944e+00
1.2037539640e+00
1.2038077257e+00
1.2038577140e+00
1.2039039953e+00
1.2039466647e+00
1.2039858410e+00
1.2040216635e+00
1.2040542874e+00
1.2040838805e+00
1.2041106191e+00
1.2041346857e+00
1.2041562649e+00
1.2041755420e+00
1.2041926995e+00
1.2042079161e+00
1.2042213644e+00
1.2042332104e+00
1.2042436111e+00
1.2042527154e+00
1.2042606621e+00
1.2042675806e+00
1.2042735903e+00
1.2042788008e+00
1.2042833120e+00
1.2042872149e+00
1.2042905912e+00
1.2042935145e+00
1.2042960504e+00
1.2042982574e+00
1.2043001871e+00
1.2043018851e+00
1.2043033914e+00
1.2043047412e+00
1.2043059649e+00
1.2043070893e+00
1.2043081376e+00
1.2043091300e+00
1.2043100837e+00
1.2043110140e+00
1.2043119339e+00
1.2043128544e+00
1.2043137851e+00
1.2043147341e+00
1.2043157080e+00
1.2043167119e+00
1.2043177500e+00
1.2043188247e+00
1.2043199375e+00
1.2043210882e+00
1.2043222755e+00
1.2043234962e+00
1.2043247460e+00
1.2043260188e+00
1.2043273071e+00
1.2043286019e+00
1.2043298930e+00
1.2043311685e+00
1.2043324160e+00
1.2043336218e+00
1.2043347720e+00
1.2043358522e+00
1.2043368486e+00
1.2043377477e+00
1.2043385370e+00
1.2043392055e+00
1.2043397441e+00
1.2043401456e+00
1.2043404050e+00
1.2043405197e+00
1.2043476780e+00
1.2018250601e+00
1.2018321227e+00
1.2018481659e+00
1.2018722311e+00
1.2019040759e+00
1.2019433850e+00
1.2019897728e+00
1.2020427926e+00
1.2021019410e+00
1.2021666681e+00
1.2022363839e+00
1.2023104691e+00
1.2023882820e+00
1.2024691699e+00
1.2025524755e+00
1.2026375485e+00
1.2027237502e+00
1.2028104651e+00
1.2028971040e+00
1.2029831130e+00
1.2030679762e+00
1.2031512227e+00
1.2032324265e+00
1.2033112123e+00
1.2033872536e+00
1.2034602762e+00
1.2035300551e+00
1.2035964154e+00
1.2036592290e+00
1.2037184134e+00
1.2037739275e+00
1.2038257695e+00
1.2038739721e+00
1.2039185998e+00
1.2039597436e+00
1.2039975187e+00
1.2040320588e+00
1.2040635139e+00
1.2040920454e+00
1.2041178237e+00
1.2041410244e+00
1.2041618258e+00
1.2041804063e+00
1.2041969423e+00
1.2042116057e+00
1.2042245635e+00
1.2042359752e+00
1.2042459929e+00
1.2042547598e+00
1.2042624101e+00
1.2042690685e+00
1.2042748503e+00
1.2042798612e+00
1.2042841980e+00
1.2042879479e+00
1.2042911904e+00
1.2042939961e+00
1.2042964287e+00
1.2042985445e+00
1.2043003935e+00
1.2043020197e+00
1.2043034620e+00
1.2043047541e+00
1.2043059260e+00
1.2043070034e+00
1.2043080091e+00
1.2043089626e+00
1.2043098811e+00
1.2043107794e+00
1.2043116704e+00
1.2043125654e+00
1.2043134740e+00