# vtk DataFile Version 2.0
Blank
ASCII
DATASET STRUCTURED_GRID
DIMENSIONS 101 101 2
POINTS 20402 float
0.0000000000e+00 0.0000000000e+00 0.0000000000e+00
1.0000000000e-02 0.0000000000e+00 0.0000000000e+00
2.0000000000e-02 0.0000000000e+00 0.0000000000e+00
3.0000000000e-02 0.0000000000e+00 0.0000000000e+00
4.0000000000e-02 0.0000000000e+00 0.0000000000e+00
5.0000000000e-02 0.0000000000e+00 0.0000000000e+00
6.0000000000e-02 0.0000000000e+00 0.0000000000e+00
7.0000000000e-02 0.0000000000e+00 0.0000000000e+00
8.0000000000e-02 0.0000000000e+00 0.0000000000e+00
9.0000000000e-02 0.0000000000e+00 0.0000000000e+00
1.0000000000e-01 0.0000000000e+00 0.0000000000e+00
1.1000000000e-01 0.0000000000e+00 0.0000000000e+00
1.2000000000e-01 0.0000000000e+00 0.0000000000e+00
1.3000000000e-01 0.0000000000e+00 0.0000000000e+00
1.4000000000e-01 0.0000000000e+00 0.0000000000e+00
1.5000000000e-01 0.0000000000e+00 0.0000000000e+00
1.6000000000e-01 0.0000000000e+00 0.0000000000e+00
1.7000000000e-01 0.0000000000e+00 0.0000000000e+00
1.8000000000e-01 0.0000000000e+00 0.0000000000e+00
1.9000000000e-01 0.0000000000e+00 0.0000000000e+00
2.0000000000e-01 0.0000000000e+00 0.0000000000e+00
2.1000000000e-01 0.0000000000e+00 0.0000000000e+00
2.2000000000e-01 0.0000000000e+00 0.0000000000e+00
2.3000000000e-01 0.0000000000e+00 0.0000000000e+00
2.4000000000e-01 0.0000000000e+00 0.0000000000e+00
2.5000000000e-01 0.0000000000e+00 0.0000000000e+00
2.6000000000e-01 0.0000000000e+00 0.0000000000e+00
2.7000000000e-01 0.0000000000e+00 0.0000000000e+00
2.8000000000e-01 0.0000000000e+00 0.0000000000e+00
2.9000000000e-01 0.0000000000e+00 0.0000000000e+00
3.0000000000e-01 0.0000000000e+00 0.0000000000e+00
3.1000000000e-01 0.0000000000e+00 0.0000000000e+00
3.2000000000e-01 0.0000000000e+00 0.0000000000e+00
3.3000000000e-01 0.0000000000e+00 0.0000000000e+00
3.4000000000e-01 0.0000000000e+00 0.0000000000e+00
3.5000000000e-01 0.0000000000e+00 0.0000000000e+00
3.6000000000e-01 0.0000000000e+00 0.0000000000e+00
3.7000000000e-01 0.0000000000e+00 0.0000000000e+00
3.8000000000e-01 0.0000000000e+00 0.0000000000e+00
3.9000000000e-01 0.0000000000e+00 0.0000000000e+00
4.0000000000e-01 0.0000000000e+00 0.0000000000e+00
4.1000000000e-01 0.0000000000e+00 0.0000000000e+00
4.2000000000e-01 0.0000000000e+00 0.0000000000e+00
4.3000000000e-01 0.0000000000e+00 0.0000000000e+00
4.4000000000e-01 0.0000000000e+00 0.0000000000e+00
4.5000000000e-01 0.0000000000e+00 0.0000000000e+00
4.6000000000e-01 0.0000000000e+00 0.0000000000e+00
4.7000000000e-01 0.0000000000e+00 0.0000000000e+00
4.8000000000e-01 0.0000000000e+00 0.0000000000e+00
4.9000000000e-01 0.0000000000e+00 0.0000000000e+00
5.0000000000e-01 0.0000000000e+00 0.0000000000e+00
5.1000000000e-01 0.0000000000e+00 0.0000000000e+00
5.2000000000e-01 0.0000000000e+00 0.0000000000e+00
5.3000000000e-01 0.0000000000e+00 0.0000000000e+00
5.4000000000e-01 0.0000000000e+00 0.0000000000e+00
5.5000000000e-01 0.0000000000e+00 0.0000000000e+00
5.6000000000e-01 0.0000000000e+00 0.0000000000e+00
5.7000000000e-01 0.0000000000e+00 0.0000000000e+00
5.8000000000e-01 0.0000000000e+00 0.0000000000e+00
5.9000000000e-01 0.0000000000e+00 0.0000000000e+00
6.0000000000e-01 0.0000000000e+00 0.0000000000e+00
6.1000000000e-01 0.0000000000e+00 0.0000000000e+00
6.2000000000e-01 0.0000000000e+00 0.0000000000e+00
6.3000000000e-01 0.0000000000e+00 0.0000000000e+00
6.4000000000e-01 0.0000000000e+00 0.0000000000e+00
6.5000000000e-01 0.0000000000e+00 0.0000000000e+00
6.6000000000e-01 0.0000000000e+00 0.0000000000e+00
6.7000000000e-01 0.0000000000e+00 0.0000000000e+00
6.8000000000e-01 0.0000000000e+00 0.0000000000e+00
6.9000000000e-01 0.0000000000e+00 0.0000000000e+00
7.0000000000e-01 0.0000000000e+00 0.0000000000e+00
7.1000000000e-01 0.0000000000e+00 0.0000000000e+00
7.2000000000e-01 0.0000000000e+00 0.0000000000e+00
7.3000000000e-01 0.0000000000e+00 0.0000000000e+00
7.4000000000e-01 0.0000000000e+00 0.0000000000e+00
7.5000000000e-01 0.0000000000e+00 0.0000000000e+00
7.6000000000e-01 0.0000000000e+00 0.0000000000e+00
7.7000000000e-01 0.0000000000e+00 0.0000000000e+00
7.8000000000e-01 0.0000000000e+00 0.0000000000e+00
7.9000000000e-01 0.0000000000e+00 0.0000000000e+00
8.0000000000e-01 0.0000000000e+00 0.0000000000e+00
8.1000000000e-01 0.0000000000e+00 0.0000000000e+00
8.2000000000e-01 0.0000000000e+00 0.0000000000e+00
8.3000000000e-01 0.0000000000e+00 0.0000000000e+00
8.4000000000e-01 0.0000000000e+00 0.0000000000e+00
8.5000000000e-01 0.0000000000e+00 0.0000000000e+00
8.6000000000e-01 0.0000000000e+00 0.0000000000e+00
8.7000000000e-01 0.0000000000e+00 0.0000000000e+00
8.8000000000e-01 0.0000000000e+00 0.0000000000e+00
8.9000000000e-01 0.0000000000e+00 0.0000000000e+00
9.0000000000e-01 0.0000000000e+00 0.0000000000e+00
9.1000000000e-01 0.0000000000e+00 0.0000000000e+00
9.2000000000e-01 0.0000000000e+00 0.0000000000e+00
9.3000000000e-01 0.0000000000e+00 0.0000000000e+00
9.4000000000e-01 0.0000000000e+00 0.0000000000e+00
9.5000000000e-01 0.0000000000e+00 0.0000000000e+00
9.6000000000e-01 0.0000000000e+00 0.0000000000e+00
9.7000000000e-01 0.0000000000e+00 0.0000000000e+00
9.8000000000e-01 0.0000000000e+00 0.0000000000e+00
9.9000000000e-01 0.0000000000e+00 0.0000000000e+00
1.0000000000e+00 0.0000000000e+00 0.0000000000e+00
0.0000000000e+00 1.0000000000e-02 0.0000000000e+00
1.0000000000e-02 1.0000000000e-02 0.0000000000e+00
2.0000000000e-02 1.0000000000e-02 0.0000000000e+00
3.0000000000e-02 1.0000000000e-02 0.0000000000e+00
4.0000000000e-02 1.0000000000e-02 0.0000000000e+00
5.0000000000e-02 1.0000000000e-02 0.0000000000e+00
6.0000000000e-02 1.0000000000e-02 0.0000000000e+00
7.0000000000e-02 1.0000000000e-02 0.0000000000e+00
8.0000000000e-02 1.0000000000e-02 0.0000000000e+00
9.0000000000e-02 1.0000000000e-02 0.0000000000e+00
1.0000000000e-01 1.0000000000e-02 0.0000000000e+00
1.1000000000e-01 1.0000000000e-02 0.0000000000e+00
1.2000000000e-01 1.0000000000e-02 0.0000000000e+00
1.3000000000e-01 1.0000000000e-02 0.0000000000e+00
1.4000000000e-01 1.0000000000e-02 0.0000000000e+00
1.5000000000e-01 1.0000000000e-02 0.0000000000e+00
1.6000000000e-01 1.0000000000e-02 0.0000000000e+00
1.7000000000e-01 1.0000000000e-02 0.0000000000e+00
1.8000000000e-01 1.0000000000e-02 0.0000000000e+00
1.9000000000e-01 1.0000000000e-02 0.0000000000e+00
2.0000000000e-01 1.0000000000e-02 0.0000000000e+00
2.1000000000e-01 1.0000000000e-02 0.0000000000e+00
2.2000000000e-01 1.0000000000e-02 0.0000000000e+00
2.3000000000e-01 1.0000000000e-02 0.0000000000e+00
2.4000000000e-01 1.0000000000e-02 0.0000000000e+00
2.5000000000e-01 1.0000000000e-02 0.0000000000e+00
2.6000000000e-01 1.0000000000e-02 0.0000000000e+00
2.7000000000e-01 1.0000000000e-02 0.0000000000e+00
2.8000000000e-01 1.0000000000e-02 0.0000000000e+00
2.9000000000e-01 1.0000000000e-02 0.0000000000e+00
3.0000000000e-01 1.0000000000e-02 0.0000000000e+00
3.1000000000e-01 1.0000000000e-02 0.0000000000e+00
3.2000000000e-01 1.0000000000e-02 0.0000000000e+00
3.3000000000e-01 1.0000000000e-02 0.0000000000e+00
3.4000000000e-01 1.0000000000e-02 0.0000000000e+00
3.5000000000e-01 1.0000000000e-02 0.0000000000e+00
3.6000000000e-01 1.0000000000e-02 0.0000000000e+00
3.7000000000e-01 1.0000000000e-02 0.0000000000e+00
3.8000000000e-01 1.0000000000e-02 0.0000000000e+00
3.9000000000e-01 1.0000000000e-02 0.0000000000e+00
4.0000000000e-01 1.0000000000e-02 0.0000000000e+00
4.1000000000e-01 1.0000000000e-02 0.0000000000e+00
4.2000000000e-01 1.0000000000e-02 0.0000000000e+00
4.3000000000e-01 1.0000000000e-02 0.0000000000e+00
4.4000000000e-01 1.0000000000e-02 0.0000000000e+00
4.5000000000e-01 1.0000000000e-02 0.0000000000e+00
4.6000000000e-01 1.0000000000e-02 0.0000000000e+00
4.7000000000e-01 1.0000000000e-02 0.0000000000e+00
4.8000000000e-01 1.0000000000e-02 0.0000000000e+00
4.9000000000e-01 1.0000000000e-02 0.0000000000e+00
5.0000000000e-01 1.0000000000e-02 0.0000000000e+00
5.1000000000e-01 1.0000000000e-02 0.0000000000e+00
5.2000000000e-01 1.0000000000e-02 0.0000000000e+00
5.3000000000e-01 1.0000000000e-02 0.0000000000e+00
5.4000000000e-01 1.0000000000e-02 0.0000000000e+00
5.5000000000e-01 1.0000000000e-02 0.0000000000e+00
5.6000000000e-01 1.0000000000e-02 0.0000000000e+00
5.7000000000e-01 1.0000000000e-02 0.0000000000e+00
5.8000000000e-01 1.0000000000e-02 0.0000000000e+00
5.9000000000e-01 1.0000000000e-02 0.0000000000e+00
6.0000000000e-01 1.0000000000e-02 0.0000000000e+00
6.1000000000e-01 1.0000000000e-02 0.0000000000e+00
6.2000000000e-01 1.0000000000e-02 0.0000000000e+00
6.3000000000e-01 1.0000000000e-02 0.0000000000e+00
6.4000000000e-01 1.0000000000e-02 0.0000000000e+00
6.5000000000e-01 1.0000000000e-02 0.0000000000e+00
6.6000000000e-01 1.0000000000e-02 0.0000000000e+00
6.7000000000e-01 1.0000000000e-02 0.0000000000e+00
6.8000000000e-01 1.0000000000e-02 0.0000000000e+00
6.9000000000e-01 1.0000000000e-02 0.0000000000e+00
7.0000000000e-01 1.0000000000e-02 0.0000000000e+00
7.1000000000e-01 1.0000000000e-02 0.0000000000e+00
7.2000000000e-01 1.0000000000e-02 0.0000000000e+00
7.3000000000e-01 1.0000000000e-02 0.0000000000e+00
7.4000000000e-01 1.0000000000e-02 0.0000000000e+00
7.5000000000e-01 1.0000000000e-02 0.0000000000e+00
7.6000000000e-01 1.0000000000e-02 0.0000000000e+00
7.7000000000e-01 1.0000000000e-02 0.0000000000e+00
7.8000000000e-01 1.0000000000e-02 0.0000000000e+00
7.9000000000e-01 1.0000000000e-02 0.0000000000e+00
8.0000000000e-01 1.0000000000e-02 0.0000000000e+00
8.1000000000e-01 1.0000000000e-02 0.0000000000e+00
8.2000000000e-01 1.0000000000e-02 0.0000000000e+00
8.3000000000e-01 1.0000000000e-02 0.0000000000e+00
8.4000000000e-01 1.0000000000e-02 0.0000000000e+00
8.5000000000e-01 1.0000000000e-02 0.0000000000e+00
8.6000000000e-01 1.0000000000e-02 0.0000000000e+00
8.7000000000e-01 1.0000000000e-02 0.0000000000e+00
8.8000000000e-01 1.0000000000e-02 0.0000000000e+00
8.9000000000e-01 1.0000000000e-02 0.0000000000e+00
9.0000000000e-01 1.0000000000e-02 0.0000000000e+00
9.1000000000e-01 1.0000000000e-02 0.0000000000e+00
9.2000000000e-01 1.0000000000e-02 0.0000000000e+00
[...]
CELL_DATA 10000

SCALARS massDensity float
LOOKUP_TABLE default
1.1915055980e+00
1.1917234276e+00
1.1920357938e+00
1.1924974058e+00
1.1930896878e+00
1.1937900273e+00
1.1945732195e+00
1.1954127546e+00
1.1962822960e+00
1.1971568459e+00
1.1980139311e+00
1.1988343298e+00
1.1996027063e+00
1.2003077579e+00
1.2009422608e+00
1.2015027105e+00
1.2019889349e+00
1.2024034450e+00
1.2027508599e+00
1.2030372115e+00
1.2032694043e+00
1.2034546541e+00
1.2036001136e+00
1.2037125211e+00
1.2037980238e+00
1.2038620246e+00
1.2039091638e+00
1.2039433047e+00
1.2039676076e+00
1.2039845868e+00
1.2039962180e+00
1.2040040147e+00
1.2040091298e+00
1.2040124237e+00
1.2040145422e+00
1.2040159665e+00
1.2040170654e+00
1.2040181278e+00
1.2040193939e+00
1.2040210756e+00
1.2040233726e+00
1.2040264863e+00
1.2040306260e+00
1.2040360205e+00
1.2040429175e+00
1.2040515949e+00
1.2040623556e+00
1.2040755388e+00
1.2040915105e+00
1.2041106745e+00
1.2041334570e+00
1.2041603154e+00
1.2041917132e+00
1.2042281223e+00
1.2042699837e+00
1.2043176959e+00
1.2043715540e+00
1.2044317191e+00
1.2044981326e+00
1.2045704703e+00
1.2046480423e+00
1.2047297535e+00
1.2048140233e+00
1.2048987977e+00
1.2049815414e+00
1.2050593544e+00
1.2051290769e+00
1.2051875339e+00
1.2052317386e+00
1.2052592133e+00
1.2052682000e+00
1.2052579328e+00
1.2052287145e+00
1.2051820080e+00
1.2051202790e+00
1.2050468583e+00
1.2049655797e+00
1.2048805019e+00
1.2047954957e+00
1.2047139992e+00
1.2046387342e+00
1.2045716299e+00
1.2045137546e+00
1.2044654208e+00
1.2044262874e+00
1.2043955567e+00
1.2043721325e+00
1.2043547986e+00
1.2043423394e+00
1.2043336409e+00
1.2043277399e+00
1.2043238507e+00
1.2043213596e+00
1.2043198094e+00
1.2043188720e+00
1.2043183213e+00
1.2043180072e+00
1.2043178337e+00
1.2043177417e+00
1.2043177037e+00
1.1917234276e+00
1.1919516278e+00
1.1922661675e+00
1.1927256962e+00
1.1933126845e+00
1.1940054382e+00
1.1947793589e+00
1.1956085597e+00
1.1964670949e+00
1.1973304304e+00
1.1981763533e+00
1.1989859794e+00
1.1997441248e+00
1.2004397055e+00
1.2010655527e+00
1.2016182738e+00
1.2020976739e+00
1.2025062921e+00
1.2028486721e+00
1.2031308192e+00
1.2033595362e+00
1.2035419849e+00
1.2036852124e+00
1.2037958966e+00
1.2038800896e+00
1.2039431403e+00
1.2039896108e+00
1.2040233213e+00
1.2040473716e+00
1.2040642434e+00
1.2040758658e+00
1.2040837264e+00
1.2040889405e+00
1.2040923444e+00
1.2040945499e+00
1.2040960115e+00
1.2040970628e+00
1.2040979589e+00
1.2040988991e+00
1.2041000503e+00
1.2041015615e+00
1.2041035742e+00
1.2041062332e+00
1.2041096888e+00
1.2041141066e+00
1.2041196638e+00
1.2041265603e+00
1.2041350101e+00
1.2041452540e+00
1.2041575466e+00
1.2041721708e+00
1.2041894197e+00
1.2042096119e+00
1.2042330670e+00
1.2042601181e+00
1.2042910779e+00
1.2043262426e+00
1.2043658409e+00
1.2044100242e+00
1.2044587922e+00
1.2045119667e+00
1.2045690994e+00
1.2046294441e+00
1.2046918719e+00
1.2047548802e+00
1.2048165625e+00
1.2048747039e+00
1.2049268466e+00
1.2049704992e+00
1.2050032899e+00
1.2050232504e+00
1.2050289763e+00
1.2050198769e+00
1.2049962168e+00
1.2049592125e+00
1.2049108686e+00
1.2048538833e+00
1.2047913108e+00
1.2047263586e+00
1.2046620199e+00
1.2046009113e+00
1.2045450301e+00
1.2044957363e+00
1.2044536967e+00
1.2044190068e+00
1.2043912706e+00
1.2043697772e+00
1.2043536185e+00
1.2043418332e+00
1.2043334880e+00
1.2043277520e+00
1.2043239230e+00
1.2043214411e+00
1.2043198785e+00
1.2043189233e+00
1.2043183561e+00
1.2043180294e+00
1.2043178472e+00
1.2043177497e+00
1.2043177099e+00
1.1920357938e+00
1.1922661675e+00
1.1925751167e+00
1.1930243533e+00
1.1935971676e+00
1.1942725515e+00
1.1950267836e+00
1.1958346356e+00
1.1966709922e+00
1.1975118847e+00
1.1983357965e+00
1.1991242511e+00
1.1998625592e+00
1.2005398513e+00
1.2011492303e+00
1.2016873334e+00
1.2021540420e+00
1.2025517844e+00
1.2028850425e+00
1.2031596306e+00
1.2033822175e+00
1.2035597499e+00
1.2036991225e+00
1.2038068152e+00
1.2038887442e+00
1.2039500981e+00
1.2039953356e+00
1.2040281593e+00
1.2040515991e+00
1.2040680571e+00
1.2040794197e+00
1.2040871239e+00
1.2040922607e+00
1.2040956355e+00
1.2040978469e+00
1.2040993301e+00
1.2041004103e+00
1.2041013301e+00
1.2041022811e+00
1.2041034205e+00
1.2041048877e+00
1.2041068151e+00
1.2041093343e+00
1.2041125848e+00
1.2041167136e+00
1.2041218842e+00
1.2041282708e+00
1.2041360689e+00
1.2041454854e+00
1.2041567510e+00
1.2041701066e+00
1.2041858181e+00
1.2042041597e+00
1.2042254300e+00
1.2042499308e+00
1.2042779818e+00
1.2043098895e+00
1.2043459523e+00
1.2043864097e+00
1.2044314274e+00
1.2044810175e+00
1.2045349996e+00
1.2045928980e+00
1.2046538985e+00
1.2047167593e+00
1.2047798146e+00
1.2048409589e+00
1.2048977601e+00
1.2049475629e+00
1.2049877329e+00
1.2050158548e+00
1.2050300432e+00
1.2050291200e+00
1.2050128547e+00
1.2049819718e+00
1.2049381962e+00
1.2048840194e+00
1.2048225449e+00
1.2047570917e+00
1.2046909679e+00
1.2046270936e+00
1.2045678674e+00
1.2045149621e+00
1.2044693626e+00
1.2044313601e+00
1.2044007177e+00
1.2043767792e+00
1.2043586573e+00
1.2043453503e+00
1.2043358731e+00
1.2043293217e+00
1.2043249268e+00
1.2043220643e+00
1.2043202545e+00
1.2043191434e+00
1.2043184815e+00
1.2043180988e+00
1.2043178847e+00
1.2043177698e+00
1.2043177229e+00
1.1924974058e+00
1.1927256962e+00
1.1930243533e+00
1.1934574912e+00
1.1940089993e+00
1.1946588684e+00
1.1953842466e+00
1.1961610611e+00
1.1969650790e+00
1.1977734147e+00
1.1985652810e+00
1.1993230518e+00
1.2000325111e+00
1.2006833257e+00
1.2012687874e+00
1.2017857588e+00
1.2022340649e+00
1.2026161146e+00
1.2029361691e+00
1.2031998732e+00
1.2034135997e+00
1.2035840660e+00
1.2037178689e+00
1.2038212646e+00
1.2038999146e+00
1.2039588250e+00
1.2040022602e+00
1.2040337926e+00
1.2040563166e+00
1.2040721509e+00
1.2040830945e+00
1.2040905354e+00
1.2040955115e+00
1.2040988013e+00
1.2041009721e+00
1.2041024446e+00
1.2041035251e+00
1.2041044470e+00
1.2041053895e+00
1.2041065013e+00
1.2041079121e+00
1.2041097438e+00
1.2041121180e+00
1.2041151601e+00
1.2041190051e+00
1.2041237966e+00
1.2041296933e+00
1.2041368634e+00
1.2041454932e+00
1.2041557780e+00
1.2041679333e+00
1.2041821841e+00
1.2041987793e+00
1.2042179804e+00
1.2042400792e+00
1.2042653833e+00
1.2042942321e+00
1.2043269695e+00
1.2043639457e+00
1.2044054616e+00
1.2044517387e+00
1.2045028246e+00
1.2045585288e+00
1.2046183038e+00
1.2046811806e+00
1.2047456809e+00
1.2048098265e+00
1.2048711597e+00
1.2049268974e+00
1.2049740997e+00
1.2050099694e+00
1.2050321047e+00
1.2050388368e+00
1.2050294029e+00
1.2050041514e+00
1.2049644748e+00
1.2049127737e+00
1.2048521246e+00
1.2047860555e+00
1.2047180938e+00
1.2046515339e+00
1.2045890779e+00
1.2045327575e+00
1.2044837933e+00
1.2044427023e+00
1.2044093504e+00
1.2043831568e+00
1.2043632246e+00
1.2043485278e+00
1.2043380173e+00
1.2043307278e+00
1.2043258215e+00
1.2043226176e+00
1.2043205865e+00
1.2043193371e+00
1.2043185911e+00
1.2043181591e+00
1.2043179171e+00
1.2043177871e+00
1.2043177340e+00
1.1930896878e+00
1.1933126845e+00
1.1935971676e+00
1.1940089993e+00
1.1945329669e+00
1.1951499734e+00
1.1958385007e+00
1.1965755930e+00
1.1973384333e+00
1.1981051837e+00
1.1988562866e+00
1.1995749020e+00
1.2002476881e+00
1.2008647425e+00
1.2014198227e+00
1.2019098738e+00
1.2023348257e+00
1.2026969029e+00
1.2030002199e+00
1.2032500840e+00
1.2034525921e+00
1.2036140787e+00
1.2037408368e+00
1.2038387706e+00
1.2039132739e+00
1.2039690706e+00
1.2040102220e+00
1.2040400962e+00
1.2040614503e+00
1.2040764674e+00
1.2040868623e+00
1.2040939389e+00
1.2040986879e+00
1.2041018382e+00
1.2041039321e+00
1.2041053615e+00
1.2041064196e+00
1.2041073220e+00
1.2041082394e+00
1.2041093086e+00
1.2041106506e+00
1.2041123773e+00
1.2041145993e+00
1.2041174310e+00
1.2041209923e+00
1.2041254133e+00
1.2041308312e+00
1.2041373966e+00
1.2041452669e+00
1.2041546146e+00
1.2041656193e+00
1.2041784805e+00
1.2041934094e+00
1.2042106486e+00
1.2042304655e+00
1.2042531763e+00
1.2042791359e+00
1.2043087556e+00
1.2043424741e+00
1.2043807471e+00
1.2044239766e+00
1.2044724522e+00
1.2045262306e+00
1.2045850368e+00
1.2046481288e+00
1.2047142188e+00
1.2047814067e+00
1.2048472207e+00
1.2049087065e+00
1.2049626539e+00
1.2050058509e+00
1.2050354511e+00
1.2050492667e+00
1.2050461089e+00
1.2050259123e+00
1.2049898612e+00
1.2049402030e+00
1.2048801060e+00
1.2048132156e+00
1.2047433753e+00
1.2046741450e+00
1.2046085989e+00
1.2045490234e+00
1.2044969201e+00
1.2044529503e+00
1.2044171134e+00
1.2043888529e+00
1.2043672843e+00
1.2043513324e+00
1.2043399003e+00
1.2043319537e+00
1.2043265973e+00
1.2043230937e+00
1.2043208706e+00
1.2043195014e+00
1.2043186835e+00
1.2043182096e+00
1.2043179440e+00
1.2043178013e+00
1.2043177430e+00
1.1937900273e+00
1.1940054382e+00
1.1942725515e+00
1.1946588684e+00
1.1951499734e+00
1.1957281042e+00
1.1963729654e+00
1.1970632331e+00
1.1977773957e+00
1.1984951858e+00
1.1991981522e+00
1.1998706969e+00
1.2005002080e+00
1.2010775611e+00
1.2015968146e+00
1.2020552272e+00
1.2024526579e+00
1.2027912796e+00
1.2030748857e+00
1.2033085100e+00
1.2034978143e+00
1.2036487734e+00
1.2037672419e+00
1.2038587766e+00
1.2039283976e+00
1.2039805468e+00
1.2040190021e+00
1.2040469302e+00
1.2040668932e+00
1.2040809443e+00
1.2040906743e+00
1.2040973110e+00
1.2041017708e+00
1.2041047416e+00
1.2041067227e+00
1.2041080853e+00
1.2041090975e+00
1.2041099638e+00
1.2041108394e+00
1.2041118530e+00
1.2041131144e+00
1.2041147265e+00
1.2041167897e+00
1.2041194065e+00
1.2041226849e+00
1.2041267382e+00
1.2041316886e+00
1.2041376632e+00
1.2041447997e+00
1.2041532400e+00
1.2041631400e+00
1.2041746635e+00
1.2041879996e+00
1.2042033608e+00
1.2042210081e+00
1.2042412534e+00
1.2042644878e+00
1.2042911748e+00
1.2043218615e+00
1.2043571386e+00
1.2043976035e+00
1.2044437602e+00
1.2044959178e+00
1.2045540372e+00
1.2046175979e+00
1.2046854594e+00
1.2047557928e+00
1.2048260693e+00
1.2048931715e+00
1.2049535860e+00
1.2050037274e+00
1.2050402816e+00
1.2050606264e+00
1.2050631226e+00
1.2050474106e+00
1.2050144210e+00
1.2049663804e+00
1.2049064695e+00
1.2048385715e+00
1.2047667360e+00
1.2046948816e+00
1.2046263345e+00
1.2045637007e+00
1.2045086567e+00
1.2044620524e+00
1.2044239445e+00
1.2043938315e+00
1.2043707984e+00
1.2043537430e+00
1.2043415023e+00
1.2043329888e+00
1.2043272453e+00
1.2043234880e+00
1.2043211031e+00
1.2043196347e+00
1.2043187575e+00
1.2043182496e+00
1.2043179650e+00
1.2043178122e+00
1.2043177498e+00
1.1945732195e+00
1.1947793589e+00
1.1950267836e+00
1.1953842466e+00
1.1958385007e+00
1.1963729654e+00
1.1969690365e+00
1.1976068446e+00
1.1982666932e+00
1.1989296970e+00
1.1995789903e+00
1.2002000213e+00
1.2007813039e+00
1.2013142926e+00
1.2017936380e+00
1.2022167168e+00
1.2025835081e+00
1.2028959494e+00
1.2031576257e+00
1.2033731329e+00
1.2035477577e+00
1.2036869767e+00
1.2037962360e+00
1.2038806348e+00
1.2039448350e+00
1.2039929129e+00
1.2040283748e+00
1.2040541242e+00
1.2040725396e+00
1.2040855008e+00
1.2040944859e+00
1.2041006162e+00
1.2041047452e+00
1.2041074986e+00
1.2041093431e+00
1.2041106145e+00
1.2041115646e+00
1.2041123772e+00
1.2041131981e+00
1.2041141427e+00
1.2041153129e+00
1.2041168010e+00
1.2041186979e+00
1.2041210954e+00
1.2041240883e+00
1.2041277768e+00
1.2041322643e+00
1.2041376610e+00
1.2041440789e+00
1.2041516387e+00
1.2041604645e+00
1.2041706973e+00
1.2041824947e+00
1.2041960545e+00
1.2042116220e+00
1.2042295235e+00
1.2042501757e+00
1.2042741138e+00
1.2043019812e+00
1.2043345198e+00
1.2043725042e+00
1.2044166598e+00
1.2044675209e+00
1.2045252775e+00
1.2045895945e+00
1.2046594604e+00
1.2047330779e+00
1.2048078468e+00
1.2048804532e+00
1.2049470910e+00
1.2050037808e+00
1.2050467958e+00
1.2050730648e+00
1.2050806009e+00
1.2050687225e+00
1.2050382412e+00
1.2049913009e+00
1.2049312333e+00
1.2048620573e+00
1.2047881469e+00
1.2047136514e+00
1.2046422369e+00
1.2045767016e+00
1.2045189581e+00
1.2044699424e+00
1.2044298109e+00
1.2043980512e+00
1.2043737476e+00
1.2043557376e+00
1.2043428136e+00
1.2043338229e+00
1.2043277611e+00
1.2043237966e+00
1.2043212825e+00
1.2043197356e+00
1.2043188126e+00
1.2043182786e+00
1.2043179799e+00
1.2043178198e+00
1.2043177543e+00
1.1954127546e+00
1.1956085597e+00
1.1958346356e+00
1.1961610611e+00
1.1965755930e+00
1.1970632331e+00
1.1976068446e+00
1.1981884777e+00
1.1987900019e+00
1.1993943827e+00
1.1999860864e+00
1.2005520239e+00
1.2010815912e+00
1.2015671541e+00
1.2020037301e+00
1.2023890548e+00
1.2027230273e+00
1.2030075101e+00
1.2032457082e+00
1.2034418798e+00
1.2036007951e+00
1.2037274930e+00
1.2038268992e+00
1.2039036925e+00
1.2039620918e+00
1.2040058327e+00
1.2040380872e+00
1.2040615156e+00
1.2040782668e+00
1.2040900643e+00
1.2040982408e+00
1.2041038264e+00
1.2041075878e+00
1.2041101020e+00
1.2041117861e+00
1.2041129516e+00
1.2041138219e+00
1.2041145688e+00
1.2041153209e+00
1.2041161858e+00
1.2041172535e+00
1.2041186087e+00
1.2041203316e+00
1.2041225037e+00
1.2041252081e+00
1.2041285301e+00
1.2041325584e+00
1.2041373822e+00
1.2041430946e+00
1.2041497888e+00
1.2041575670e+00
1.2041665401e+00
1.2041768470e+00
1.2041886634e+00
1.2042022349e+00
1.2042178954e+00
1.2042361055e+00
1.2042574654e+00
1.2042827315e+00
1.2043127873e+00
1.2043485940e+00
1.2043910811e+00
1.2044410030e+00
1.2044987509e+00
1.2045641531e+00
1.2046362924e+00
1.2047133728e+00
1.2047926902e+00
1.2048707170e+00
1.2049433343e+00
1.2050061902e+00
1.2050551371e+00
1.2050867304e+00
1.2050986237e+00
1.2050899375e+00
1.2050613238e+00
1.2050149915e+00
1.2049543367e+00
1.2048836548e+00
1.2048075169e+00
1.2047304163e+00
1.2046562161e+00
1.2045879886e+00
1.2045277547e+00
1.2044765933e+00
1.2044346683e+00
1.2044014964e+00
1.2043761080e+00
1.2043573089e+00
1.2043438235e+00
1.2043344535e+00
1.2043281409e+00
1.2043240188e+00
1.2043214076e+00
1.2043198039e+00
1.2043188485e+00
1.2043182969e+00
1.2043179888e+00
1.2043178240e+00
1.2043177566e+00
1.1962822960e+00
1.1964670949e+00
1.1966709922e+00
1.1969650790e+00
1.1973384333e+00
1.1977773957e+00
1.1982666932e+00
1.1987900019e+00
1.1993311849e+00
1.1998747505e+00
1.2004069041e+00
1.2009157249e+00
1.2013918403e+00
1.2018282635e+00
1.2022206536e+00
1.2025668801e+00
1.2028669632e+00
1.2031225063e+00
1.2033364735e+00
1.2035126396e+00
1.2036553517e+00
1.2037690988e+00
1.2038583491e+00
1.2039272766e+00
1.2039797008e+00
1.2040189543e+00
1.2040479066e+00
1.2040689291e+00
1.2040839664e+00
1.2040945520e+00
1.2041018935e+00
1.2041069048e+00
1.2041102830e+00
1.2041125375e+00
1.2041140498e+00
1.2041150931e+00
1.2041158736e+00
1.2041165407e+00
1.2041172142e+00
1.2041179873e+00
1.2041189433e+00
1.2041201556e+00
1.2041216965e+00
1.2041236363e+00
1.2041260465e+00
1.2041289993e+00
1.2041325665e+00
1.2041368204e+00
1.2041418313e+00
1.2041476716e+00
1.2041544162e+00
1.2041621555e+00
1.2041710043e+00
1.2041811295e+00
1.2041927726e+00
1.2042062912e+00
1.2042221869e+00
1.2042411419e+00
1.2042640221e+00
1.2042918644e+00
1.2043258082e+00
1.2043669854e+00
1.2044163523e+00
1.2044744800e+00
1.2045413321e+00
1.2046160470e+00
1.2046967998e+00
1.2047807437e+00
1.2048641168e+00
1.2049424766e+00
1.2050110936e+00
1.2050654417e+00
1.2051017032e+00
1.2051172747e+00
1.2051110595e+00
1.2050836952e+00
1.2050373909e+00
1.2049757640e+00
1.2049032690e+00
1.2048248125e+00
1.2047450809e+00
1.2046682407e+00
1.2045974877e+00
1.2045350264e+00
1.2044819584e+00
1.2044385079e+00
1.2044041430e+00
1.2043778779e+00
1.2043584469e+00
1.2043445329e+00
1.2043348775e+00
1.2043283860e+00
1.2043241539e+00
1.2043214794e+00
1.2043198399e+00
1.2043188656e+00
1.2043183044e+00
1.2043179919e+00
1.2043178250e+00
1.2043177568e+00
1.1971568459e+00
1.1973304304e+00
1.1975118847e+00
1.1977734147e+00
1.1981051837e+00
1.1984951858e+00
1.1989296970e+00
1.1993943827e+00
1.1998747505e+00
1.2003572211e+00
1.2008293964e+00
1.2012808635e+00
1.2017031736e+00
1.2020902747e+00
1.2024382101e+00
1.2027452113e+00
1.2030112156e+00
1.2032377392e+00
1.2034273510e+00
1.2035834678e+00
1.2037098996e+00
1.2038106760e+00
1.2038897244e+00
1.2039507794e+00
1.2039972007e+00
1.2040319659e+00
1.2040575979e+00
1.2040762151e+00
1.2040895244e+00
1.2040988975e+00
1.2041053915e+00
1.2041098259e+00
1.2041128084e+00
1.2041147984e+00
1.2041161263e+00
1.2041170407e+00
1.2041177187e+00
1.2041182981e+00
1.2041188807e+00
1.2041195532e+00
1.2041203863e+00
1.2041214469e+00
1.2041227962e+00
1.2041244957e+00
1.2041266046e+00
1.2041291819e+00
1.2041322841e+00
1.2041359646e+00
1.2041402747e+00
1.2041452628e+00
1.2041509832e+00
1.2041575020e+00
1.2041649198e+00
1.2041733923e+00
1.2041831703e+00
1.2041946349e+00
1.2042083449e+00
1.2042250651e+00
1.2042457849e+00
1.2042716930e+00
1.2043041099e+00
1.2043443608e+00
1.2043935863e+00
1.2044525175e+00
1.2045212125e+00
1.2045988392e+00
1.2046834905e+00
1.2047721563e+00
1.2048608015e+00
1.2049446550e+00
1.2050186169e+00
1.2050777905e+00
1.2051180575e+00
1.2051365566e+00
1.2051321058e+00
1.2051052884e+00
1.2050584767e+00
1.2049954108e+00
1.2049208635e+00
1.2048399281e+00
1.2047576158e+00
1.2046782289e+00
1.2046051846e+00
1.2045407228e+00
1.2044860368e+00
1.2044413053e+00
1.2044059969e+00
1.2043790488e+00
1.2043591585e+00
1.2043449407e+00
1.2043350999e+00
1.2043284974e+00
1.2043242051e+00
1.2043214988e+00
1.2043198449e+00
1.2043188647e+00
1.2043183019e+00
1.2043179893e+00
1.2043178231e+00
1.2043177550e+00
1.1980139311e+00
1.1981763533e+00
1.1983357965e+00
1.1985652810e+00
1.1988562866e+00
1.1991981522e+00
1.1995789903e+00
1.1999860864e+00
1.2004069041e+00
1.2008293964e+00
1.2012428673e+00
1.2016380619e+00
1.2020077321e+00
1.2023464666e+00
1.2026509296e+00
1.2029194845e+00
1.2031521789e+00
1.2033502727e+00
1.2035160912e+00
1.2036525741e+00
1.2037631109e+00
1.2038511891e+00
1.2039202837e+00
1.2039736325e+00
1.2040142010e+00
1.2040445711e+00
1.2040669678e+00
1.2040832260e+00
1.2040948520e+00
1.2041030309e+00
1.2041086979e+00
1.2041125582e+00
1.2041151519e+00
1.2041168718e+00
1.2041180145e+00
1.2041187904e+00
1.2041193608e+00
1.2041198411e+00
1.2041203254e+00
1.2041208857e+00
1.2041215870e+00
1.2041224848e+00
1.2041236334e+00
1.2041250824e+00
1.2041268811e+00
1.2041290741e+00
1.2041317029e+00
1.2041348033e+00
1.2041384059e+00
1.2041425392e+00
1.2041472343e+00
1.2041525405e+00
1.2041585429e+00
1.2041653965e+00
1.2041733631e+00
1.2041828613e+00
1.2041945111e+00
1.2042091745e+00
1.2042279682e+00
1.2042522397e+00
1.2042834895e+00
1.2043232239e+00
1.2043727571e+00
1.2044329414e+00
1.2045039092e+00
1.2045847973e+00
1.2046735970e+00
1.2047670740e+00
1.2048609142e+00
1.2049499914e+00
1.2050288466e+00
1.2050922499e+00
1.2051357961e+00
1.2051564742e+00
1.2051530016e+00
1.2051260658e+00
1.2050781293e+00
1.2050132277e+00
1.2049363156e+00
1.2048528280e+00
1.2047679258e+00
1.2046861686e+00
1.2046110223e+00
1.2045448508e+00
1.2044888034e+00
1.2044430763e+00
1.2044070523e+00
1.2043796363e+00
1.2043594461e+00
1.2043450582e+00
1.2043351246e+00
1.2043284818e+00
1.2043241751e+00
1.2043214692e+00
1.2043198206e+00
1.2043188471e+00
1.2043182900e+00
1.2043179817e+00
1.2043178183e+00
1.2043177515e+00
1.1988343298e+00
1.1989859794e+00
1.1991242511e+00
1.1993230518e+00
1.1995749020e+00
1.1998706969e+00
1.2002000213e+00
1.2005520239e+00
1.2009157249e+00
1.2012808635e+00
1.2016380619e+00
1.2019794693e+00
1.2022987076e+00
1.2025912320e+00
1.2028540672e+00
1.2030859072e+00
1.2032867203e+00
1.2034576782e+00
1.2036007339e+00
1.2037184872e+00
1.2038138228e+00
1.2038897955e+00
1.2039493728e+00
1.2039953801e+00
1.2040303520e+00
1.2040565379e+00
1.2040758383e+00
1.2040898518e+00
1.2040998626e+00
1.2041069047e+00
1.2041117726e+00
1.2041150842e+00
1.2041172956e+00
1.2041187540e+00
1.2041197073e+00
1.2041203441e+00
1.2041207978e+00
1.2041211737e+00
1.2041215485e+00
1.2041219886e+00
1.2041225464e+00
1.2041232719e+00
1.2041242078e+00
1.2041253960e+00
1.2041268724e+00
1.2041286697e+00
1.2041308130e+00
1.2041333210e+00
1.2041362050e+00
1.2041394726e+00
1.2041431363e+00
1.2041472281e+00
1.2041518256e+00
1.2041570858e+00
1.2041632931e+00
1.2041709097e+00
1.2041806306e+00
1.2041934233e+00
1.2042105414e+00
1.2042334969e+00
1.2042639639e+00
1.2043036278e+00
1.2043539427e+00
1.2044158696e+00
1.2044895532e+00
1.2045740821e+00
1.2046672708e+00
1.2047656537e+00
1.2048645817e+00
1.2049585855e+00
1.2050418474e+00
1.2051088282e+00