# vtk DataFile Version 2.0
Blank
ASCII
DATASET STRUCTURED_GRID
DIMENSIONS 101 101 2
POINTS 20402 float
0.0000000000e+00 0.0000000000e+00 0.0000000000e+00
1.0000000000e-02 0.0000000000e+00 0.0000000000e+00
2.0000000000e-02 0.0000000000e+00 0.0000000000e+00
3.0000000000e-02 0.0000000000e+00 0.0000000000e+00
4.0000000000e-02 0.0000000000e+00 0.0000000000e+00
5.0000000000e-02 0.0000000000e+00 0.0000000000e+00
6.0000000000e-02 0.0000000000e+00 0.0000000000e+00
7.0000000000e-02 0.0000000000e+00 0.0000000000e+00
8.0000000000e-02 0.0000000000e+00 0.0000000000e+00
9.0000000000e-02 0.0000000000e+00 0.0000000000e+00
1.0000000000e-01 0.0000000000e+00 0.0000000000e+00
1.1000000000e-01 0.0000000000e+00 0.0000000000e+00
1.2000000000e-01 0.0000000000e+00 0.0000000000e+00
1.3000000000e-01 0.0000000000e+00 0.0000000000e+00
1.4000000000e-01 0.0000000000e+00 0.0000000000e+00
1.5000000000e-01 0.0000000000e+00 0.0000000000e+00
1.6000000000e-01 0.0000000000e+00 0.0000000000e+00
1.7000000000e-01 0.0000000000e+00 0.0000000000e+00
1.8000000000e-01 0.0000000000e+00 0.0000000000e+00
1.9000000000e-01 0.0000000000e+00 0.0000000000e+00
2.0000000000e-01 0.0000000000e+00 0.0000000000e+00
2.1000000000e-01 0.0000000000e+00 0.0000000000e+00
2.2000000000e-01 0.0000000000e+00 0.0000000000e+00
2.3000000000e-01 0.0000000000e+00 0.0000000000e+00
2.4000000000e-01 0.0000000000e+00 0.0000000000e+00
2.5000000000e-01 0.0000000000e+00 0.0000000000e+00
2.6000000000e-01 0.0000000000e+00 0.0000000000e+00
2.7000000000e-01 0.0000000000e+00 0.0000000000e+00
2.8000000000e-01 0.0000000000e+00 0.0000000000e+00
2.9000000000e-01 0.0000000000e+00 0.0000000000e+00
3.0000000000e-01 0.0000000000e+00 0.0000000000e+00
3.1000000000e-01 0.0000000000e+00 0.0000000000e+00
3.2000000000e-01 0.0000000000e+00 0.0000000000e+00
3.3000000000e-01 0.0000000000e+00 0.0000000000e+00
3.4000000000e-01 0.0000000000e+00 0.0000000000e+00
3.5000000000e-01 0.0000000000e+00 0.0000000000e+00
3.6000000000e-01 0.0000000000e+00 0.0000000000e+00
3.7000000000e-01 0.0000000000e+00 0.0000000000e+00
3.8000000000e-01 0.0000000000e+00 0.0000000000e+00
3.9000000000e-01 0.0000000000e+00 0.0000000000e+00
4.0000000000e-01 0.0000000000e+00 0.0000000000e+00
4.1000000000e-01 0.0000000000e+00 0.0000000000e+00
4.2000000000e-01 0.0000000000e+00 0.0000000000e+00
4.3000000000e-01 0.0000000000e+00 0.0000000000e+00
4.4000000000e-01 0.0000000000e+00 0.0000000000e+00
4.5000000000e-01 0.0000000000e+00 0.0000000000e+00
4.6000000000e-01 0.0000000000e+00 0.0000000000e+00
4.7000000000e-01 0.0000000000e+00 0.0000000000e+00
4.8000000000e-01 0.0000000000e+00 0.0000000000e+00
4.9000000000e-01 0.0000000000e+00 0.0000000000e+00
5.0000000000e-01 0.0000000000e+00 0.0000000000e+00
5.1000000000e-01 0.0000000000e+00 0.0000000000e+00
5.2000000000e-01 0.0000000000e+00 0.0000000000e+00
5.3000000000e-01 0.0000000000e+00 0.0000000000e+00
5.4000000000e-01 0.0000000000e+00 0.0000000000e+00
5.5000000000e-01 0.0000000000e+00 0.0000000000e+00
5.6000000000e-01 0.0000000000e+00 0.0000000000e+00
5.7000000000e-01 0.0000000000e+00 0.0000000000e+00
5.8000000000e-01 0.0000000000e+00 0.0000000000e+00
5.9000000000e-01 0.0000000000e+00 0.0000000000e+00
6.0000000000e-01 0.0000000000e+00 0.0000000000e+00
6.1000000000e-01 0.0000000000e+00 0.0000000000e+00
6.2000000000e-01 0.0000000000e+00 0.0000000000e+00
6.3000000000e-01 0.0000000000e+00 0.0000000000e+00
6.4000000000e-01 0.0000000000e+00 0.0000000000e+00
6.5000000000e-01 0.0000000000e+00 0.0000000000e+00
6.6000000000e-01 0.0000000000e+00 0.0000000000e+00
6.7000000000e-01 0.0000000000e+00 0.0000000000e+00
6.8000000000e-01 0.0000000000e+00 0.0000000000e+00
6.9000000000e-01 0.0000000000e+00 0.0000000000e+00
7.0000000000e-01 0.0000000000e+00 0.0000000000e+00
7.1000000000e-01 0.0000000000e+00 0.0000000000e+00
7.2000000000e-01 0.0000000000e+00 0.0000000000e+00
7.3000000000e-01 0.0000000000e+00 0.0000000000e+00
7.4000000000e-01 0.0000000000e+00 0.0000000000e+00
7.5000000000e-01 0.0000000000e+00 0.0000000000e+00
7.6000000000e-01 0.0000000000e+00 0.0000000000e+00
7.7000000000e-01 0.0000000000e+00 0.0000000000e+00
7.8000000000e-01 0.0000000000e+00 0.0000000000e+00
7.9000000000e-01 0.0000000000e+00 0.0000000000e+00
8.0000000000e-01 0.0000000000e+00 0.0000000000e+00
8.1000000000e-01 0.0000000000e+00 0.0000000000e+00
8.2000000000e-01 0.0000000000e+00 0.0000000000e+00
8.3000000000e-01 0.0000000000e+00 0.0000000000e+00
8.4000000000e-01 0.0000000000e+00 0.0000000000e+00
8.5000000000e-01 0.0000000000e+00 0.0000000000e+00
8.6000000000e-01 0.0000000000e+00 0.0000000000e+00
8.7000000000e-01 0.0000000000e+00 0.0000000000e+00
8.8000000000e-01 0.0000000000e+00 0.0000000000e+00
8.9000000000e-01 0.0000000000e+00 0.0000000000e+00
9.0000000000e-01 0.0000000000e+00 0.0000000000e+00
9.1000000000e-01 0.0000000000e+00 0.0000000000e+00
9.2000000000e-01 0.0000000000e+00 0.0000000000e+00
9.3000000000e-01 0.0000000000e+00 0.0000000000e+00
9.4000000000e-01 0.0000000000e+00 0.0000000000e+00
9.5000000000e-01 0.0000000000e+00 0.0000000000e+00
9.6000000000e-01 0.0000000000e+00 0.0000000000e+00
9.7000000000e-01 0.0000000000e+00 0.0000000000e+00
9.8000000000e-01 0.0000000000e+00 0.0000000000e+00
9.9000000000e-01 0.0000000000e+00 0.0000000000e+00
1.0000000000e+00 0.0000000000e+00 0.0000000000e+00
0.0000000000e+00 1.0000000000e-02 0.0000000000e+00
1.0000000000e-02 1.0000000000e-02 0.0000000000e+00
2.0000000000e-02 1.0000000000e-02 0.0000000000e+00
3.0000000000e-02 1.0000000000e-02 0.0000000000e+00
4.0000000000e-02 1.0000000000e-02 0.0000000000e+00
5.0000000000e-02 1.0000000000e-02 0.0000000000e+00
6.0000000000e-02 1.0000000000e-02 0.0000000000e+00
7.0000000000e-02 1.0000000000e-02 0.0000000000e+00
8.0000000000e-02 1.0000000000e-02 0.0000000000e+00
9.0000000000e-02 1.0000000000e-02 0.0000000000e+00
1.0000000000e-01 1.0000000000e-02 0.0000000000e+00
1.1000000000e-01 1.0000000000e-02 0.0000000000e+00
1.2000000000e-01 1.0000000000e-02 0.0000000000e+00
1.3000000000e-01 1.0000000000e-02 0.0000000000e+00
1.4000000000e-01 1.0000000000e-02 0.0000000000e+00
1.5000000000e-01 1.0000000000e-02 0.0000000000e+00
1.6000000000e-01 1.0000000000e-02 0.0000000000e+00
1.7000000000e-01 1.0000000000e-02 0.0000000000e+00
1.8000000000e-01 1.0000000000e-02 0.0000000000e+00
1.9000000000e-01 1.0000000000e-02 0.0000000000e+00
2.0000000000e-01 1.0000000000e-02 0.0000000000e+00
2.1000000000e-01 1.0000000000e-02 0.0000000000e+00
2.2000000000e-01 1.0000000000e-02 0.0000000000e+00
2.3000000000e-01 1.0000000000e-02 0.0000000000e+00
2.4000000000e-01 1.0000000000e-02 0.0000000000e+00
2.5000000000e-01 1.0000000000e-02 0.0000000000e+00
2.6000000000e-01 1.0000000000e-02 0.0000000000e+00
2.7000000000e-01 1.0000000000e-02 0.0000000000e+00
2.8000000000e-01 1.0000000000e-02 0.0000000000e+00
2.9000000000e-01 1.0000000000e-02 0.0000000000e+00
3.0000000000e-01 1.0000000000e-02 0.0000000000e+00
3.1000000000e-01 1.0000000000e-02 0.0000000000e+00
3.2000000000e-01 1.0000000000e-02 0.0000000000e+00
3.3000000000e-01 1.0000000000e-02 0.0000000000e+00
3.4000000000e-01 1.0000000000e-02 0.0000000000e+00
3.5000000000e-01 1.0000000000e-02 0.0000000000e+00
3.6000000000e-01 1.0000000000e-02 0.0000000000e+00
3.7000000000e-01 1.0000000000e-02 0.0000000000e+00
3.8000000000e-01 1.0000000000e-02 0.0000000000e+00
3.9000000000e-01 1.0000000000e-02 0.0000000000e+00
4.0000000000e-01 1.0000000000e-02 0.0000000000e+00
4.1000000000e-01 1.0000000000e-02 0.0000000000e+00
4.2000000000e-01 1.0000000000e-02 0.0000000000e+00
4.3000000000e-01 1.0000000000e-02 0.0000000000e+00
4.4000000000e-01 1.0000000000e-02 0.0000000000e+00
4.5000000000e-01 1.0000000000e-02 0.0000000000e+00
4.6000000000e-01 1.0000000000e-02 0.0000000000e+00
4.7000000000e-01 1.0000000000e-02 0.0000000000e+00
4.8000000000e-01 1.0000000000e-02 0.0000000000e+00
4.9000000000e-01 1.0000000000e-02 0.0000000000e+00
5.0000000000e-01 1.0000000000e-02 0.0000000000e+00
5.1000000000e-01 1.0000000000e-02 0.0000000000e+00
5.2000000000e-01 1.0000000000e-02 0.0000000000e+00
5.3000000000e-01 1.0000000000e-02 0.0000000000e+00
5.4000000000e-01 1.0000000000e-02 0.0000000000e+00
5.5000000000e-01 1.0000000000e-02 0.0000000000e+00
5.6000000000e-01 1.0000000000e-02 0.0000000000e+00
5.7000000000e-01 1.0000000000e-02 0.0000000000e+00
5.8000000000e-01 1.0000000000e-02 0.0000000000e+00
5.9000000000e-01 1.0000000000e-02 0.0000000000e+00
6.0000000000e-01 1.0000000000e-02 0.0000000000e+00
6.1000000000e-01 1.0000000000e-02 0.0000000000e+00
6.2000000000e-01 1.0000000000e-02 0.0000000000e+00
6.3000000000e-01 1.0000000000e-02 0.0000000000e+00
6.4000000000e-01 1.0000000000e-02 0.0000000000e+00
6.5000000000e-01 1.0000000000e-02 0.0000000000e+00
6.6000000000e-01 1.0000000000e-02 0.0000000000e+00
6.7000000000e-01 1.0000000000e-02 0.0000000000e+00
6.8000000000e-01 1.0000000000e-02 0.0000000000e+00
6.9000000000e-01 1.0000000000e-02 0.0000000000e+00
7.0000000000e-01 1.0000000000e-02 0.0000000000e+00
7.1000000000e-01 1.0000000000e-02 0.0000000000e+00
7.2000000000e-01 1.0000000000e-02 0.0000000000e+00
7.3000000000e-01 1.0000000000e-02 0.0000000000e+00
7.4000000000e-01 1.0000000000e-02 0.0000000000e+00
7.5000000000e-01 1.0000000000e-02 0.0000000000e+00
7.6000000000e-01 1.0000000000e-02 0.0000000000e+00
7.7000000000e-01 1.0000000000e-02 0.0000000000e+00
7.8000000000e-01 1.0000000000e-02 0.0000000000e+00
7.9000000000e-01 1.0000000000e-02 0.0000000000e+00
8.0000000000e-01 1.0000000000e-02 0.0000000000e+00
8.1000000000e-01 1.0000000000e-02 0.0000000000e+00
8.2000000000e-01 1.0000000000e-02 0.0000000000e+00
8.3000000000e-01 1.0000000000e-02 0.0000000000e+00
8.4000000000e-01 1.0000000000e-02 0.0000000000e+00
8.5000000000e-01 1.0000000000e-02 0.0000000000e+00
8.6000000000e-01 1.0000000000e-02 0.0000000000e+00
8.7000000000e-01 1.0000000000e-02 0.0000000000e+00
8.8000000000e-01 1.0000000000e-02 0.0000000000e+00
8.9000000000e-01 1.0000000000e-02 0.0000000000e+00
9.0000000000e-01 1.0000000000e-02 0.0000000000e+00
9.1000000000e-01 1.0000000000e-02 0.0000000000e+00
9.2000000000e-01 1.0000000000e-02 0.0000000000e+00
[...]
CELL_DATA 10000

SCALARS massDensity float
LOOKUP_TABLE default
1.1893606932e+00
1.1896562512e+00
1.1900764833e+00
1.1906941082e+00
1.1914805772e+00
1.1924016767e+00
1.1934196976e+00
1.1944959682e+00
1.1955929387e+00
1.1966763453e+00
1.1977166131e+00
1.1986900839e+00
1.1995793831e+00
1.2003735681e+00
1.2010675532e+00
1.2016614540e+00
1.2021594834e+00
1.2025689674e+00
1.2028991880e+00
1.2031604965e+00
1.2033634342e+00
1.2035181718e+00
1.2036340202e+00
1.2037192204e+00
1.2037807878e+00
1.2038245515e+00
1.2038552022e+00
1.2038764507e+00
1.2038911579e+00
1.2039015119e+00
1.2039091606e+00
1.2039153562e+00
1.2039210578e+00
1.2039270277e+00
1.2039339006e+00
1.2039422387e+00
1.2039525751e+00
1.2039654389e+00
1.2039813840e+00
1.2040009929e+00
1.2040248979e+00
1.2040537670e+00
1.2040883185e+00
1.2041292882e+00
1.2041774298e+00
1.2042334542e+00
1.2042980046e+00
1.2043715542e+00
1.2044543424e+00
1.2045462241e+00
1.2046465763e+00
1.2047541242e+00
1.2048668685e+00
1.2049819665e+00
1.2050957830e+00
1.2052039375e+00
1.2053015824e+00
1.2053836786e+00
1.2054455043e+00
1.2054830706e+00
1.2054936865e+00
1.2054762589e+00
1.2054316209e+00
1.2053624402e+00
1.2052731063e+00
1.2051691847e+00
1.2050569448e+00
1.2049426099e+00
1.2048318621e+00
1.2047292769e+00
1.2046381280e+00
1.2045602324e+00
1.2044961214e+00
1.2044452266e+00
1.2044062348e+00
1.2043773784e+00
1.2043567459e+00
1.2043424842e+00
1.2043329544e+00
1.2043267964e+00
1.2043229487e+00
1.2043206237e+00
1.2043192653e+00
1.2043184978e+00
1.2043180787e+00
1.2043178575e+00
1.2043177446e+00
1.2043176889e+00
1.2043176625e+00
1.2043176503e+00
1.2043176449e+00
1.2043176426e+00
1.2043176416e+00
1.2043176412e+00
1.2043176411e+00
1.2043176410e+00
1.2043176410e+00
1.2043176410e+00
1.2043176410e+00
1.2043176410e+00
1.1896562512e+00
1.1899653966e+00
1.1903877525e+00
1.1910012927e+00
1.1917791854e+00
1.1926883894e+00
1.1936923469e+00
1.1947531207e+00
1.1958339995e+00
1.1969012012e+00
1.1979257554e+00
1.1988842847e+00
1.1997598004e+00
1.2005414635e+00
1.2012243783e+00
1.2018086217e+00
1.2022984447e+00
1.2027010413e+00
1.2030256346e+00
1.2032824007e+00
1.2034817771e+00
1.2036337557e+00
1.2037475362e+00
1.2038312010e+00
1.2038916654e+00
1.2039346276e+00
1.2039646936e+00
1.2039854670e+00
1.2039997325e+00
1.2040095836e+00
1.2040165905e+00
1.2040219113e+00
1.2040264139e+00
1.2040307547e+00
1.2040354533e+00
1.2040409429e+00
1.2040476080e+00
1.2040558165e+00
1.2040659325e+00
1.2040783396e+00
1.2040934367e+00
1.2041116590e+00
1.2041334606e+00
1.2041593358e+00
1.2041897887e+00
1.2042253507e+00
1.2042665314e+00
1.2043138212e+00
1.2043676077e+00
1.2044281481e+00
1.2044954384e+00
1.2045691500e+00
1.2046484634e+00
1.2047320067e+00
1.2048177178e+00
1.2049028776e+00
1.2049841081e+00
1.2050576054e+00
1.2051193432e+00
1.2051655231e+00
1.2051929091e+00
1.2051993417e+00
1.2051839666e+00
1.2051475449e+00
1.2050923220e+00
1.2050219553e+00
1.2049409831e+00
1.2048544617e+00
1.2047672831e+00
1.2046838269e+00
1.2046074758e+00
1.2045405397e+00
1.2044841384e+00
1.2044384131e+00
1.2044026820e+00
1.2043757604e+00
1.2043561788e+00
1.2043424300e+00
1.2043331034e+00
1.2043269922e+00
1.2043231220e+00
1.2043207540e+00
1.2043193536e+00
1.2043185534e+00
1.2043181115e+00
1.2043178758e+00
1.2043177544e+00
1.2043176939e+00
1.2043176649e+00
1.2043176514e+00
1.2043176454e+00
1.2043176428e+00
1.2043176417e+00
1.2043176413e+00
1.2043176411e+00
1.2043176410e+00
1.2043176410e+00
1.2043176410e+00
1.2043176410e+00
1.2043176410e+00
1.1900764833e+00
1.1903877525e+00
1.1908008906e+00
1.1913982986e+00
1.1921542041e+00
1.1930370012e+00
1.1940112517e+00
1.1950404490e+00
1.1960888800e+00
1.1971239918e+00
1.1981175490e+00
1.1990470521e+00
1.1998959026e+00
1.2006537343e+00
1.2013157053e+00
1.2018820103e+00
1.2023567023e+00
1.2027468511e+00
1.2030613486e+00
1.2033101305e+00
1.2035032763e+00
1.2036505213e+00
1.2037607506e+00
1.2038418312e+00
1.2039004381e+00
1.2039421144e+00
1.2039713004e+00
1.2039914999e+00
1.2040053917e+00
1.2040150092e+00
1.2040218568e+00
1.2040270551e+00
1.2040314295e+00
1.2040356076e+00
1.2040400771e+00
1.2040452408e+00
1.2040514525e+00
1.2040590414e+00
1.2040683353e+00
1.2040796653e+00
1.2040933848e+00
1.2041098611e+00
1.2041294957e+00
1.2041527086e+00
1.2041799615e+00
1.2042117345e+00
1.2042485483e+00
1.2042909220e+00
1.2043393764e+00
1.2043943495e+00
1.2044561538e+00
1.2045248290e+00
1.2046000446e+00
1.2046809090e+00
1.2047658747e+00
1.2048525981e+00
1.2049379757e+00
1.2050181944e+00
1.2050890244e+00
1.2051461211e+00
1.2051855569e+00
1.2052042332e+00
1.2052004195e+00
1.2051739582e+00
1.2051264935e+00
1.2050612089e+00
1.2049826174e+00
1.2048958890e+00
1.2048064075e+00
1.2047190480e+00
1.2046378698e+00
1.2045657068e+00
1.2045042058e+00
1.2044538165e+00
1.2044140943e+00
1.2043839139e+00
1.2043618087e+00
1.2043461819e+00
1.2043355214e+00
1.2043284969e+00
1.2043240277e+00
1.2043212805e+00
1.2043196495e+00
1.2043187140e+00
1.2043181958e+00
1.2043179185e+00
1.2043177753e+00
1.2043177038e+00
1.2043176694e+00
1.2043176534e+00
1.2043176462e+00
1.2043176431e+00
1.2043176418e+00
1.2043176413e+00
1.2043176411e+00
1.2043176410e+00
1.2043176410e+00
1.2043176410e+00
1.2043176410e+00
1.2043176410e+00
1.1906941082e+00
1.1910012927e+00
1.1913982986e+00
1.1919706648e+00
1.1926940019e+00
1.1935380324e+00
1.1944692026e+00
1.1954524969e+00
1.1964540693e+00
1.1974426529e+00
1.1983915110e+00
1.1992789926e+00
1.2000894421e+00
1.2008128294e+00
1.2014446917e+00
1.2019851176e+00
1.2024381026e+00
1.2028103259e+00
1.2031103693e+00
1.2033476657e+00
1.2035319018e+00
1.2036723296e+00
1.2037774734e+00
1.2038548086e+00
1.2039107341e+00
1.2039505126e+00
1.2039783990e+00
1.2039977147e+00
1.2040110256e+00
1.2040202541e+00
1.2040268397e+00
1.2040318365e+00
1.2040360304e+00
1.2040400067e+00
1.2040442227e+00
1.2040490485e+00
1.2040548055e+00
1.2040617899e+00
1.2040702876e+00
1.2040805902e+00
1.2040929952e+00
1.2041078218e+00
1.2041254040e+00
1.2041461132e+00
1.2041703495e+00
1.2041985723e+00
1.2042312881e+00
1.2042690786e+00
1.2043125630e+00
1.2043623916e+00
1.2044191451e+00
1.2044832537e+00
1.2045548089e+00
1.2046334107e+00
1.2047179417e+00
1.2048064412e+00
1.2048959907e+00
1.2049827946e+00
1.2050623423e+00
1.2051298183e+00
1.2051805484e+00
1.2052106357e+00
1.2052174302e+00
1.2052000485e+00
1.2051594707e+00
1.2050986122e+00
1.2050218508e+00
1.2049346455e+00
1.2048427149e+00
1.2047515527e+00
1.2046657224e+00
1.2045886570e+00
1.2045223825e+00
1.2044677030e+00
1.2044243137e+00
1.2043911804e+00
1.2043667915e+00
1.2043494862e+00
1.2043376356e+00
1.2043298056e+00
1.2043248095e+00
1.2043217322e+00
1.2043199014e+00
1.2043188499e+00
1.2043182665e+00
1.2043179541e+00
1.2043177925e+00
1.2043177119e+00
1.2043176730e+00
1.2043176550e+00
1.2043176469e+00
1.2043176434e+00
1.2043176419e+00
1.2043176414e+00
1.2043176411e+00
1.2043176410e+00
1.2043176410e+00
1.2043176410e+00
1.2043176410e+00
1.2043176410e+00
1.1914805772e+00
1.1917791854e+00
1.1921542041e+00
1.1926940019e+00
1.1933753974e+00
1.1941701348e+00
1.1950464463e+00
1.1959716745e+00
1.1969137671e+00
1.1978435877e+00
1.1987357863e+00
1.1995702441e+00
1.2003320693e+00
1.2010120342e+00
1.2016058134e+00
1.2021136512e+00
1.2025392100e+00
1.2028888887e+00
1.2031706865e+00
1.2033935544e+00
1.2035665463e+00
1.2036984148e+00
1.2037971314e+00
1.2038697585e+00
1.2039222774e+00
1.2039596570e+00
1.2039858699e+00
1.2040040519e+00
1.2040165937e+00
1.2040253100e+00
1.2040315375e+00
1.2040362701e+00
1.2040402332e+00
1.2040439751e+00
1.2040479135e+00
1.2040523883e+00
1.2040576879e+00
1.2040640741e+00
1.2040717975e+00
1.2040811046e+00
1.2040922499e+00
1.2041054947e+00
1.2041211250e+00
1.2041394501e+00
1.2041608338e+00
1.2041856983e+00
1.2042145667e+00
1.2042480612e+00
1.2042869318e+00
1.2043320102e+00
1.2043841709e+00
1.2044441883e+00
1.2045125860e+00
1.2045893892e+00
1.2046739031e+00
1.2047644691e+00
1.2048583432e+00
1.2049516683e+00
1.2050396724e+00
1.2051170113e+00
1.2051783489e+00
1.2052189559e+00
1.2052354234e+00
1.2052261073e+00
1.2051915349e+00
1.2051342768e+00
1.2050587889e+00
1.2049706790e+00
1.2048761728e+00
1.2047811961e+00
1.2046909332e+00
1.2046092290e+00
1.2045385614e+00
1.2044799442e+00
1.2044332593e+00
1.2043974782e+00
1.2043710786e+00
1.2043522995e+00
1.2043394216e+00
1.2043308988e+00
1.2043254569e+00
1.2043221018e+00
1.2043201055e+00
1.2043189585e+00
1.2043183224e+00
1.2043179818e+00
1.2043178058e+00
1.2043177180e+00
1.2043176757e+00
1.2043176561e+00
1.2043176474e+00
1.2043176436e+00
1.2043176420e+00
1.2043176414e+00
1.2043176411e+00
1.2043176411e+00
1.2043176410e+00
1.2043176410e+00
1.2043176410e+00
1.2043176410e+00
1.1924016767e+00
1.1926883894e+00
1.1930370012e+00
1.1935380324e+00
1.1941701348e+00
1.1949068727e+00
1.1957190722e+00
1.1965762270e+00
1.1974489370e+00
1.1983099741e+00
1.1991361387e+00
1.1999085924e+00
1.2006137886e+00
1.2012430206e+00
1.2017924810e+00
1.2022622761e+00
1.2026559459e+00
1.2029793269e+00
1.2032399300e+00
1.2034459763e+00
1.2036059177e+00
1.2037278060e+00
1.2038190655e+00
1.2038861937e+00
1.2039347554e+00
1.2039693189e+00
1.2039935792e+00
1.2040104142e+00
1.2040220486e+00
1.2040301434e+00
1.2040359428e+00
1.2040403527e+00
1.2040440474e+00
1.2040475228e+00
1.2040511637e+00
1.2040552732e+00
1.2040601095e+00
1.2040659011e+00
1.2040728616e+00
1.2040811991e+00
1.2040911198e+00
1.2041028403e+00
1.2041165896e+00
1.2041326345e+00
1.2041512917e+00
1.2041729721e+00
1.2041982024e+00
1.2042276764e+00
1.2042622574e+00
1.2043029869e+00
1.2043510051e+00
1.2044074451e+00
1.2044732162e+00
1.2045487589e+00
1.2046337344e+00
1.2047267551e+00
1.2048251765e+00
1.2049250546e+00
1.2050212946e+00
1.2051080478e+00
1.2051792835e+00
1.2052295484e+00
1.2052546585e+00
1.2052523993e+00
1.2052228037e+00
1.2051683290e+00
1.2050934000e+00
1.2050039902e+00
1.2049066512e+00
1.2048079052e+00
1.2047133438e+00
1.2046273320e+00
1.2045526086e+00
1.2044904660e+00
1.2044408416e+00
1.2044027602e+00
1.2043746209e+00
1.2043545974e+00
1.2043408568e+00
1.2043317660e+00
1.2043259612e+00
1.2043223855e+00
1.2043202590e+00
1.2043190387e+00
1.2043183627e+00
1.2043180013e+00
1.2043178149e+00
1.2043177221e+00
1.2043176775e+00
1.2043176569e+00
1.2043176477e+00
1.2043176437e+00
1.2043176421e+00
1.2043176414e+00
1.2043176411e+00
1.2043176411e+00
1.2043176410e+00
1.2043176410e+00
1.2043176410e+00
1.2043176410e+00
1.1934196976e+00
1.1936923469e+00
1.1940112517e+00
1.1944692026e+00
1.1950464463e+00
1.1957190722e+00
1.1964601882e+00
1.1972422460e+00
1.1980381593e+00
1.1988233893e+00
1.1995765391e+00
1.2002807029e+00
1.2009233345e+00
1.2014967260e+00
1.2019972593e+00
1.2024252109e+00
1.2027837004e+00
1.2030781787e+00
1.2033154134e+00
1.2035029870e+00
1.2036485436e+00
1.2037594798e+00
1.2038425162e+00
1.2039036113e+00
1.2039478007e+00
1.2039792708e+00
1.2040013613e+00
1.2040167103e+00
1.2040273240e+00
1.2040347265e+00
1.2040400359e+00
1.2040440843e+00
1.2040474741e+00
1.2040506599e+00
1.2040539817e+00
1.2040577131e+00
1.2040620776e+00
1.2040672725e+00
1.2040734760e+00
1.2040808566e+00
1.2040895794e+00
1.2040998110e+00
1.2041117371e+00
1.2041255756e+00
1.2041416164e+00
1.2041602523e+00
1.2041820410e+00
1.2042077401e+00
1.2042383557e+00
1.2042751258e+00
1.2043194765e+00
1.2043728720e+00
1.2044366022e+00
1.2045114739e+00
1.2045974671e+00
1.2046933988e+00
1.2047966691e+00
1.2049031843e+00
1.2050074967e+00
1.2051032175e+00
1.2051836670e+00
1.2052426614e+00
1.2052753882e+00
1.2052790512e+00
1.2052534143e+00
1.2052007526e+00
1.2051257069e+00
1.2050344593e+00
1.2049340995e+00
1.2048315233e+00
1.2047328809e+00
1.2046428277e+00
1.2045644620e+00
1.2044991738e+00
1.2044470215e+00
1.2044069739e+00
1.2043773986e+00
1.2043563560e+00
1.2043419332e+00
1.2043323981e+00
1.2043263199e+00
1.2043225804e+00
1.2043203612e+00
1.2043190899e+00
1.2043183873e+00
1.2043180126e+00
1.2043178198e+00
1.2043177241e+00
1.2043176783e+00
1.2043176572e+00
1.2043176478e+00
1.2043176437e+00
1.2043176421e+00
1.2043176414e+00
1.2043176411e+00
1.2043176411e+00
1.2043176410e+00
1.2043176410e+00
1.2043176410e+00
1.2043176410e+00
1.1944959682e+00
1.1947531207e+00
1.1950404490e+00
1.1954524969e+00
1.1959716745e+00
1.1965762270e+00
1.1972422460e+00
1.1979447052e+00
1.1986595669e+00
1.1993645323e+00
1.2000406743e+00
1.2006725929e+00
1.2012492781e+00
1.2017636381e+00
1.2022126314e+00
1.2025963782e+00
1.2029178338e+00
1.2031817970e+00
1.2033944502e+00
1.2035625291e+00
1.2036929657e+00
1.2037923449e+00
1.2038667434e+00
1.2039214671e+00
1.2039610637e+00
1.2039892581e+00
1.2040090660e+00
1.2040228304e+00
1.2040323646e+00
1.2040390182e+00
1.2040438039e+00
1.2040474548e+00
1.2040505175e+00
1.2040533890e+00
1.2040563760e+00
1.2040597130e+00
1.2040635957e+00
1.2040681867e+00
1.2040736313e+00
1.2040800599e+00
1.2040875954e+00
1.2040963624e+00
1.2041065000e+00
1.2041181917e+00
1.2041316980e+00
1.2041474162e+00
1.2041659337e+00
1.2041881001e+00
1.2042150620e+00
1.2042482784e+00
1.2042894501e+00
1.2043403753e+00
1.2044026947e+00
1.2044775473e+00
1.2045651789e+00
1.2046645423e+00
1.2047730217e+00
1.2048863023e+00
1.2049985431e+00
1.2051027981e+00
1.2051917342e+00
1.2052585239e+00
1.2052977371e+00
1.2053061909e+00
1.2052833527e+00
1.2052315722e+00
1.2051555886e+00
1.2050620442e+00
1.2049583548e+00
1.2048519886e+00
1.2047493985e+00
1.2046556668e+00
1.2045740213e+00
1.2045060401e+00
1.2044517443e+00
1.2044101091e+00
1.2043793882e+00
1.2043575737e+00
1.2043426433e+00
1.2043327964e+00
1.2043265314e+00
1.2043226879e+00
1.2043204122e+00
1.2043191127e+00
1.2043183966e+00
1.2043180159e+00
1.2043178207e+00
1.2043177242e+00
1.2043176782e+00
1.2043176570e+00
1.2043176477e+00
1.2043176437e+00
1.2043176420e+00
1.2043176414e+00
1.2043176411e+00
1.2043176410e+00
1.2043176410e+00
1.2043176410e+00
1.2043176410e+00
1.2043176410e+00
1.1955929387e+00
1.1958339995e+00
1.1960888800e+00
1.1964540693e+00
1.1969137671e+00
1.1974489370e+00
1.1980381593e+00
1.1986595669e+00
1.1992916336e+00
1.1999149254e+00
1.2005124702e+00
1.2010709190e+00
1.2015803465e+00
1.2020347096e+00
1.2024311735e+00
1.2027700209e+00
1.2030537551e+00
1.2032867446e+00
1.2034743731e+00
1.2036226791e+00
1.2037377277e+00
1.2038253934e+00
1.2038909992e+00
1.2039392686e+00
1.2039741837e+00
1.2039990588e+00
1.2040165305e+00
1.2040286849e+00
1.2040371033e+00
1.2040429898e+00
1.2040472237e+00
1.2040504611e+00
1.2040531731e+00
1.2040557152e+00
1.2040583475e+00
1.2040612765e+00
1.2040646619e+00
1.2040686380e+00
1.2040733142e+00
1.2040787852e+00
1.2040851340e+00
1.2040924431e+00
1.2041008140e+00
1.2041103962e+00
1.2041214376e+00
1.2041343430e+00
1.2041497543e+00
1.2041686188e+00
1.2041922496e+00
1.2042223288e+00
1.2042608430e+00
1.2043099124e+00
1.2043715031e+00
1.2044470506e+00
1.2045369958e+00
1.2046403741e+00
1.2047544564e+00
1.2048746626e+00
1.2049946875e+00
1.2051070196e+00
1.2052036923e+00
1.2052772582e+00
1.2053218135e+00
1.2053337982e+00
1.2053126267e+00
1.2052606532e+00
1.2051829920e+00
1.2050865635e+00
1.2049793536e+00
1.2048691387e+00
1.2047628549e+00
1.2046657398e+00
1.2045812731e+00
1.2045110090e+00
1.2044550145e+00
1.2044121454e+00
1.2043806001e+00
1.2043582471e+00
1.2043429957e+00
1.2043329625e+00
1.2043266011e+00
1.2043227098e+00
1.2043204146e+00
1.2043191083e+00
1.2043183914e+00
1.2043180118e+00
1.2043178180e+00
1.2043177226e+00
1.2043176773e+00
1.2043176566e+00
1.2043176474e+00
1.2043176436e+00
1.2043176420e+00
1.2043176414e+00
1.2043176411e+00
1.2043176410e+00
1.2043176410e+00
1.2043176410e+00
1.2043176410e+00
1.2043176410e+00
1.1966763453e+00
1.1969012012e+00
1.1971239918e+00
1.1974426529e+00
1.1978435877e+00
1.1983099741e+00
1.1988233893e+00
1.1993645323e+00
1.1999149254e+00
1.2004574065e+00
1.2009774646e+00
1.2014632744e+00
1.2019064326e+00
1.2023015182e+00
1.2026462559e+00
1.2029407702e+00
1.2031873837e+00
1.2033898077e+00
1.2035528273e+00
1.2036816291e+00
1.2037815567e+00
1.2038576695e+00
1.2039146409e+00
1.2039565404e+00
1.2039868596e+00
1.2040084507e+00
1.2040236262e+00
1.2040341772e+00
1.2040414929e+00
1.2040466032e+00
1.2040502833e+00
1.2040530906e+00
1.2040554420e+00
1.2040576352e+00
1.2040598991e+00
1.2040624003e+00
1.2040652727e+00
1.2040686153e+00
1.2040725071e+00
1.2040770050e+00
1.2040821549e+00
1.2040880008e+00
1.2040946094e+00
1.2041021070e+00
1.2041107350e+00
1.2041209259e+00
1.2041333866e+00
1.2041491871e+00
1.2041698195e+00
1.2041972059e+00
1.2042336219e+00
1.2042814961e+00
1.2043431021e+00
1.2044201079e+00
1.2045131084e+00
1.2046211124e+00
1.2047412333e+00
1.2048685138e+00
1.2049961697e+00
1.2051160791e+00
1.2052196697e+00
1.2052989533e+00
1.2053475907e+00
1.2053618525e+00
1.2053410795e+00
1.2052879127e+00
1.2052077043e+00
1.2051079336e+00
1.2049969044e+00
1.2048829278e+00
1.2047731230e+00
1.2046730436e+00
1.2045861566e+00
1.2045141023e+00
1.2044568158e+00
1.2044131100e+00
1.2043810375e+00
1.2043583971e+00
1.2043429979e+00
1.2043329088e+00
1.2043265342e+00
1.2043226520e+00
1.2043203710e+00
1.2043190789e+00
1.2043183729e+00
1.2043180009e+00
1.2043178119e+00
1.2043177193e+00
1.2043176756e+00
1.2043176558e+00
1.2043176471e+00
1.2043176434e+00
1.2043176419e+00
1.2043176413e+00
1.2043176411e+00
1.2043176410e+00
1.2043176410e+00
1.2043176410e+00
1.2043176410e+00
1.2043176410e+00
1.1977166131e+00
1.1979257554e+00
1.1981175490e+00
1.1983915110e+00
1.1987357863e+00
1.1991361387e+00
1.1995765391e+00
1.2000406743e+00
1.2005124702e+00
1.2009774646e+00
1.2014230113e+00
1.2018392098e+00
1.2022186879e+00
1.2025570000e+00
1.2028520648e+00
1.2031041455e+00
1.2033151332e+00
1.2034883211e+00
1.2036277346e+00
1.2037378942e+00
1.2038233212e+00
1.2038883996e+00
1.2039370890e+00
1.2039729076e+00
1.2039988120e+00
1.2040172669e+00
1.2040302267e+00
1.2040392411e+00
1.2040454800e+00
1.2040498374e+00
1.2040529620e+00
1.2040553402e+00
1.2040573164e+00
1.2040591504e+00
1.2040610250e+00
1.2040630816e+00
1.2040654171e+00
1.2040681045e+00
1.2040711860e+00
1.2040746865e+00
1.2040786133e+00
1.2040829772e+00
1.2040878151e+00
1.2040932387e+00
1.2040994971e+00
1.2041070639e+00
1.2041167339e+00
1.2041297186e+00
1.2041477093e+00
1.2041728842e+00
1.2042078049e+00
1.2042552073e+00
1.2043176210e+00
1.2043969202e+00
1.2044937448e+00
1.2046070373e+00
1.2047336150e+00
1.2048681229e+00
1.2050031961e+00
1.2051301272e+00
1.2052397475e+00
1.2053235848e+00
1.2053750178e+00
1.2053901729e+00
1.2053685835e+00
1.2053130950e+00
1.2052296004e+00
1.2051259181e+00
1.2050109390e+00
1.2048931980e+00
1.2047802008e+00
1.2046775059e+00
1.2045887109e+00
1.2045153070e+00
1.2044571972e+00
1.2044130155e+00
1.2043807395e+00
1.2043580402e+00
1.2043426737e+00
1.2043326468e+00
1.2043263428e+00
1.2043225205e+00
1.2043202865e+00
1.2043190271e+00
1.2043183428e+00
1.2043179841e+00
1.2043178030e+00
1.2043177148e+00
1.2043176734e+00
1.2043176547e+00
1.2043176466e+00
1.2043176432e+00
1.2043176418e+00
1.2043176413e+00
1.2043176411e+00
1.2043176410e+00
1.2043176410e+00
1.2043176410e+00
1.2043176410e+00
1.2043176410e+00
1.1986900839e+00
1.1988842847e+00
1.1990470521e+00
1.1992789926e+00
1.1995702441e+00
1.1999085924e+00
1.2002807029e+00
1.2006725929e+00
1.2010709190e+00
1.2014632744e+00
1.2018392098e+00
1.2021901982e+00
1.2025102185e+00
1.2027953821e+00
1.2030440963e+00
1.2032564774e+00
1.2034342441e+00
1.2035800945e+00
1.2036975112e+00
1.2037902463e+00
1.2038621711e+00
1.2039169361e+00
1.2039579186e+00
1.2039880486e+00
1.2040098448e+00
1.2040253568e+00
1.2040362503e+00
1.2040438099e+00
1.2040490358e+00
1.2040526643e+00
1.2040552530e+00
1.2040571978e+00
1.2040587958e+00
1.2040602524e+00
1.2040617227e+00
1.2040633084e+00
1.2040650831e+00
1.2040670830e+00
1.2040693228e+00
1.2040717892e+00
1.2040744586e+00
1.2040773085e+00
1.2040803561e+00
1.2040837066e+00
1.2040876329e+00
1.2040926679e+00
1.2040997171e+00
1.2041101551e+00
1.2041258973e+00
1.2041493839e+00
1.2041834767e+00
1.2042311814e+00
1.2042952733e+00
1.2043777329e+00
1.2044792136e+00
1.2045984406e+00
1.2047319110e+00
1.2048737261e+00
1.2050159588e+00
1.2051492569e+00
1.2052639208e+00
1.2053510809e+00
1.2054038972e+00
1.2054185810e+00
1.2053948343e+00
1.2053360142e+00
1.2052483839e+00
1.2051404039e+00
1.2050212514e+00
1.2048999320e+00
1.2047839925e+00
1.2046791773e+00