# vtk DataFile Version 2.0
Blank
ASCII
DATASET STRUCTURED_GRID
DIMENSIONS 101 101 2
POINTS 20402 float
0.0000000000e+00 0.0000000000e+00 0.0000000000e+00
1.0000000000e-02 0.0000000000e+00 0.0000000000e+00
2.0000000000e-02 0.0000000000e+00 0.0000000000e+00
3.0000000000e-02 0.0000000000e+00 0.0000000000e+00
4.0000000000e-02 0.0000000000e+00 0.0000000000e+00
5.0000000000e-02 0.0000000000e+00 0.0000000000e+00
6.0000000000e-02 0.0000000000e+00 0.0000000000e+00
7.0000000000e-02 0.0000000000e+00 0.0000000000e+00
8.0000000000e-02 0.0000000000e+00 0.0000000000e+00
9.0000000000e-02 0.0000000000e+00 0.0000000000e+00
1.0000000000e-01 0.0000000000e+00 0.0000000000e+00
1.1000000000e-01 0.0000000000e+00 0.0000000000e+00
1.2000000000e-01 0.0000000000e+00 0.0000000000e+00
1.3000000000e-01 0.0000000000e+00 0.0000000000e+00
1.4000000000e-01 0.0000000000e+00 0.0000000000e+00
1.5000000000e-01 0.0000000000e+00 0.0000000000e+00
1.6000000000e-01 0.0000000000e+00 0.0000000000e+00
1.7000000000e-01 0.0000000000e+00 0.0000000000e+00
1.8000000000e-01 0.0000000000e+00 0.0000000000e+00
1.9000000000e-01 0.0000000000e+00 0.0000000000e+00
2.0000000000e-01 0.0000000000e+00 0.0000000000e+00
2.1000000000e-01 0.0000000000e+00 0.0000000000e+00
2.2000000000e-01 0.0000000000e+00 0.0000000000e+00
2.3000000000e-01 0.0000000000e+00 0.0000000000e+00
2.4000000000e-01 0.0000000000e+00 0.0000000000e+00
2.5000000000e-01 0.0000000000e+00 0.0000000000e+00
2.6000000000e-01 0.0000000000e+00 0.0000000000e+00
2.7000000000e-01 0.0000000000e+00 0.0000000000e+00
2.8000000000e-01 0.0000000000e+00 0.0000000000e+00
2.9000000000e-01 0.0000000000e+00 0.0000000000e+00
3.0000000000e-01 0.0000000000e+00 0.0000000000e+00
3.1000000000e-01 0.0000000000e+00 0.0000000000e+00
3.2000000000e-01 0.0000000000e+00 0.0000000000e+00
3.3000000000e-01 0.0000000000e+00 0.0000000000e+00
3.4000000000e-01 0.0000000000e+00 0.0000000000e+00
3.5000000000e-01 0.0000000000e+00 0.0000000000e+00
3.6000000000e-01 0.0000000000e+00 0.0000000000e+00
3.7000000000e-01 0.0000000000e+00 0.0000000000e+00
3.8000000000e-01 0.0000000000e+00 0.0000000000e+00
3.9000000000e-01 0.0000000000e+00 0.0000000000e+00
4.0000000000e-01 0.0000000000e+00 0.0000000000e+00
4.1000000000e-01 0.0000000000e+00 0.0000000000e+00
4.2000000000e-01 0.0000000000e+00 0.0000000000e+00
4.3000000000e-01 0.0000000000e+00 0.0000000000e+00
4.4000000000e-01 0.0000000000e+00 0.0000000000e+00
4.5000000000e-01 0.0000000000e+00 0.0000000000e+00
4.6000000000e-01 0.0000000000e+00 0.0000000000e+00
4.7000000000e-01 0.0000000000e+00 0.0000000000e+00
4.8000000000e-01 0.0000000000e+00 0.0000000000e+00
4.9000000000e-01 0.0000000000e+00 0.0000000000e+00
5.0000000000e-01 0.0000000000e+00 0.0000000000e+00
5.1000000000e-01 0.0000000000e+00 0.0000000000e+00
5.2000000000e-01 0.0000000000e+00 0.0000000000e+00
5.3000000000e-01 0.0000000000e+00 0.0000000000e+00
5.4000000000e-01 0.0000000000e+00 0.0000000000e+00
5.5000000000e-01 0.0000000000e+00 0.0000000000e+00
5.6000000000e-01 0.0000000000e+00 0.0000000000e+00
5.7000000000e-01 0.0000000000e+00 0.0000000000e+00
5.8000000000e-01 0.0000000000e+00 0.0000000000e+00
5.9000000000e-01 0.0000000000e+00 0.0000000000e+00
6.0000000000e-01 0.0000000000e+00 0.0000000000e+00
6.1000000000e-01 0.0000000000e+00 0.0000000000e+00
6.2000000000e-01 0.0000000000e+00 0.0000000000e+00
6.3000000000e-01 0.0000000000e+00 0.0000000000e+00
6.4000000000e-01 0.0000000000e+00 0.0000000000e+00
6.5000000000e-01 0.0000000000e+00 0.0000000000e+00
6.6000000000e-01 0.0000000000e+00 0.0000000000e+00
6.7000000000e-01 0.0000000000e+00 0.0000000000e+00
6.8000000000e-01 0.0000000000e+00 0.0000000000e+00
6.9000000000e-01 0.0000000000e+00 0.0000000000e+00
7.0000000000e-01 0.0000000000e+00 0.0000000000e+00
7.1000000000e-01 0.0000000000e+00 0.0000000000e+00
7.2000000000e-01 0.0000000000e+00 0.0000000000e+00
7.3000000000e-01 0.0000000000e+00 0.0000000000e+00
7.4000000000e-01 0.0000000000e+00 0.0000000000e+00
7.5000000000e-01 0.0000000000e+00 0.0000000000e+00
7.6000000000e-01 0.0000000000e+00 0.0000000000e+00
7.7000000000e-01 0.0000000000e+00 0.0000000000e+00
7.8000000000e-01 0.0000000000e+00 0.0000000000e+00
7.9000000000e-01 0.0000000000e+00 0.0000000000e+00
8.0000000000e-01 0.0000000000e+00 0.0000000000e+00
8.1000000000e-01 0.0000000000e+00 0.0000000000e+00
8.2000000000e-01 0.0000000000e+00 0.0000000000e+00
8.3000000000e-01 0.0000000000e+00 0.0000000000e+00
8.4000000000e-01 0.0000000000e+00 0.0000000000e+00
8.5000000000e-01 0.0000000000e+00 0.0000000000e+00
8.6000000000e-01 0.0000000000e+00 0.0000000000e+00
8.7000000000e-01 0.0000000000e+00 0.0000000000e+00
8.8000000000e-01 0.0000000000e+00 0.0000000000e+00
8.9000000000e-01 0.0000000000e+00 0.0000000000e+00
9.0000000000e-01 0.0000000000e+00 0.0000000000e+00
9.1000000000e-01 0.0000000000e+00 0.0000000000e+00
9.2000000000e-01 0.0000000000e+00 0.0000000000e+00
9.3000000000e-01 0.0000000000e+00 0.0000000000e+00
9.4000000000e-01 0.0000000000e+00 0.0000000000e+00
9.5000000000e-01 0.0000000000e+00 0.0000000000e+00
9.6000000000e-01 0.0000000000e+00 0.0000000000e+00
9.7000000000e-01 0.0000000000e+00 0.0000000000e+00
9.8000000000e-01 0.0000000000e+00 0.0000000000e+00
9.9000000000e-01 0.0000000000e+00 0.0000000000e+00
1.0000000000e+00 0.0000000000e+00 0.0000000000e+00
0.0000000000e+00 1.0000000000e-02 0.0000000000e+00
1.0000000000e-02 1.0000000000e-02 0.0000000000e+00
2.0000000000e-02 1.0000000000e-02 0.0000000000e+00
3.0000000000e-02 1.0000000000e-02 0.0000000000e+00
4.0000000000e-02 1.0000000000e-02 0.0000000000e+00
5.0000000000e-02 1.0000000000e-02 0.0000000000e+00
6.0000000000e-02 1.0000000000e-02 0.0000000000e+00
7.0000000000e-02 1.0000000000e-02 0.0000000000e+00
8.0000000000e-02 1.0000000000e-02 0.0000000000e+00
9.0000000000e-02 1.0000000000e-02 0.0000000000e+00
1.0000000000e-01 1.0000000000e-02 0.0000000000e+00
1.1000000000e-01 1.0000000000e-02 0.0000000000e+00
1.2000000000e-01 1.0000000000e-02 0.0000000000e+00
1.3000000000e-01 1.0000000000e-02 0.0000000000e+00
1.4000000000e-01 1.0000000000e-02 0.0000000000e+00
1.5000000000e-01 1.0000000000e-02 0.0000000000e+00
1.6000000000e-01 1.0000000000e-02 0.0000000000e+00
1.7000000000e-01 1.0000000000e-02 0.0000000000e+00
1.8000000000e-01 1.0000000000e-02 0.0000000000e+00
1.9000000000e-01 1.0000000000e-02 0.0000000000e+00
2.0000000000e-01 1.0000000000e-02 0.0000000000e+00
2.1000000000e-01 1.0000000000e-02 0.0000000000e+00
2.2000000000e-01 1.0000000000e-02 0.0000000000e+00
2.3000000000e-01 1.0000000000e-02 0.0000000000e+00
2.4000000000e-01 1.0000000000e-02 0.0000000000e+00
2.5000000000e-01 1.0000000000e-02 0.0000000000e+00
2.6000000000e-01 1.0000000000e-02 0.0000000000e+00
2.7000000000e-01 1.0000000000e-02 0.0000000000e+00
2.8000000000e-01 1.0000000000e-02 0.0000000000e+00
2.9000000000e-01 1.0000000000e-02 0.0000000000e+00
3.0000000000e-01 1.0000000000e-02 0.0000000000e+00
3.1000000000e-01 1.0000000000e-02 0.0000000000e+00
3.2000000000e-01 1.0000000000e-02 0.0000000000e+00
3.3000000000e-01 1.0000000000e-02 0.0000000000e+00
3.4000000000e-01 1.0000000000e-02 0.0000000000e+00
3.5000000000e-01 1.0000000000e-02 0.0000000000e+00
3.6000000000e-01 1.0000000000e-02 0.0000000000e+00
3.7000000000e-01 1.0000000000e-02 0.0000000000e+00
3.8000000000e-01 1.0000000000e-02 0.0000000000e+00
3.9000000000e-01 1.0000000000e-02 0.0000000000e+00
4.0000000000e-01 1.0000000000e-02 0.0000000000e+00
4.1000000000e-01 1.0000000000e-02 0.0000000000e+00
4.2000000000e-01 1.0000000000e-02 0.0000000000e+00
4.3000000000e-01 1.0000000000e-02 0.0000000000e+00
4.4000000000e-01 1.0000000000e-02 0.0000000000e+00
4.5000000000e-01 1.0000000000e-02 0.0000000000e+00
4.6000000000e-01 1.0000000000e-02 0.0000000000e+00
4.7000000000e-01 1.0000000000e-02 0.0000000000e+00
4.8000000000e-01 1.0000000000e-02 0.0000000000e+00
4.9000000000e-01 1.0000000000e-02 0.0000000000e+00
5.0000000000e-01 1.0000000000e-02 0.0000000000e+00
5.1000000000e-01 1.0000000000e-02 0.0000000000e+00
5.2000000000e-01 1.0000000000e-02 0.0000000000e+00
5.3000000000e-01 1.0000000000e-02 0.0000000000e+00
5.4000000000e-01 1.0000000000e-02 0.0000000000e+00
5.5000000000e-01 1.0000000000e-02 0.0000000000e+00
5.6000000000e-01 1.0000000000e-02 0.0000000000e+00
5.7000000000e-01 1.0000000000e-02 0.0000000000e+00
5.8000000000e-01 1.0000000000e-02 0.0000000000e+00
5.9000000000e-01 1.0000000000e-02 0.0000000000e+00
6.0000000000e-01 1.0000000000e-02 0.0000000000e+00
6.1000000000e-01 1.0000000000e-02 0.0000000000e+00
6.2000000000e-01 1.0000000000e-02 0.0000000000e+00
6.3000000000e-01 1.0000000000e-02 0.0000000000e+00
6.4000000000e-01 1.0000000000e-02 0.0000000000e+00
6.5000000000e-01 1.0000000000e-02 0.0000000000e+00
6.6000000000e-01 1.0000000000e-02 0.0000000000e+00
6.7000000000e-01 1.0000000000e-02 0.0000000000e+00
6.8000000000e-01 1.0000000000e-02 0.0000000000e+00
6.9000000000e-01 1.0000000000e-02 0.0000000000e+00
7.0000000000e-01 1.0000000000e-02 0.0000000000e+00
7.1000000000e-01 1.0000000000e-02 0.0000000000e+00
7.2000000000e-01 1.0000000000e-02 0.0000000000e+00
7.3000000000e-01 1.0000000000e-02 0.0000000000e+00
7.4000000000e-01 1.0000000000e-02 0.0000000000e+00
7.5000000000e-01 1.0000000000e-02 0.0000000000e+00
7.6000000000e-01 1.0000000000e-02 0.0000000000e+00
7.7000000000e-01 1.0000000000e-02 0.0000000000e+00
7.8000000000e-01 1.0000000000e-02 0.0000000000e+00
7.9000000000e-01 1.0000000000e-02 0.0000000000e+00
8.0000000000e-01 1.0000000000e-02 0.0000000000e+00
8.1000000000e-01 1.0000000000e-02 0.0000000000e+00
8.2000000000e-01 1.0000000000e-02 0.0000000000e+00
8.3000000000e-01 1.0000000000e-02 0.0000000000e+00
8.4000000000e-01 1.0000000000e-02 0.0000000000e+00
8.5000000000e-01 1.0000000000e-02 0.0000000000e+00
8.6000000000e-01 1.0000000000e-02 0.0000000000e+00
8.7000000000e-01 1.0000000000e-02 0.0000000000e+00
8.8000000000e-01 1.0000000000e-02 0.0000000000e+00
8.9000000000e-01 1.0000000000e-02 0.0000000000e+00
9.0000000000e-01 1.0000000000e-02 0.0000000000e+00
9.1000000000e-01 1.0000000000e-02 0.0000000000e+00
9.2000000000e-01 1.0000000000e-02 0.0000000000e+00
[...]
CELL_DATA 10000

SCALARS massDensity float
LOOKUP_TABLE default
1.2013369678e+00
1.2013472604e+00
1.2013652287e+00
1.2013924200e+00
1.2014285598e+00
1.2014732934e+00
1.2015261930e+00
1.2015867651e+00
1.2016544561e+00
1.2017286612e+00
1.2018087315e+00
1.2018939838e+00
1.2019837096e+00
1.2020771841e+00
1.2021736762e+00
1.2022724572e+00
1.2023728099e+00
1.2024740365e+00
1.2025754666e+00
1.2026764637e+00
1.2027764312e+00
1.2028748174e+00
1.2029711196e+00
1.2030648870e+00
1.2031557227e+00
1.2032432851e+00
1.2033272876e+00
1.2034074982e+00
1.2034837380e+00
1.2035558792e+00
1.2036238419e+00
1.2036875915e+00
1.2037471347e+00
1.2038025156e+00
1.2038538118e+00
1.2039011299e+00
1.2039446017e+00
1.2039843796e+00
1.2040206328e+00
1.2040535435e+00
1.2040833033e+00
1.2041101095e+00
1.2041341627e+00
1.2041556635e+00
1.2041748104e+00
1.2041917977e+00
1.2042068139e+00
1.2042200400e+00
1.2042316487e+00
1.2042418033e+00
1.2042506571e+00
1.2042583537e+00
1.2042650257e+00
1.2042707957e+00
1.2042757762e+00
1.2042800697e+00
1.2042837692e+00
1.2042869589e+00
1.2042897143e+00
1.2042921032e+00
1.2042941860e+00
1.2042960164e+00
1.2042976419e+00
1.2042991044e+00
1.2043004407e+00
1.2043016829e+00
1.2043028592e+00
1.2043039938e+00
1.2043051076e+00
1.2043062185e+00
1.2043073415e+00
1.2043084890e+00
1.2043096711e+00
1.2043108957e+00
1.2043121686e+00
1.2043134936e+00
1.2043148725e+00
1.2043163056e+00
1.2043177911e+00
1.2043193256e+00
1.2043209042e+00
1.2043225201e+00
1.2043241652e+00
1.2043258295e+00
1.2043275019e+00
1.2043291695e+00
1.2043308180e+00
1.2043324316e+00
1.2043339930e+00
1.2043354827e+00
1.2043368794e+00
1.2043381588e+00
1.2043392932e+00
1.2043402500e+00
1.2043409902e+00
1.2043414665e+00
1.2043416217e+00
1.2043413883e+00
1.2043406962e+00
1.2043452350e+00
1.2013472604e+00
1.2013579827e+00
1.2013761476e+00
1.2014034587e+00
1.2014396565e+00
1.2014843977e+00
1.2015372631e+00
1.2015977644e+00
1.2016653531e+00
1.2017394274e+00
1.2018193418e+00
1.2019044156e+00
1.2019939429e+00
1.2020872013e+00
1.2021834621e+00
1.2022819989e+00
1.2023820971e+00
1.2024830610e+00
1.2025842227e+00
1.2026849478e+00
1.2027846420e+00
1.2028827557e+00
1.2029787882e+00
1.2030722904e+00
1.2031628673e+00
1.2032501785e+00
1.2033339390e+00
1.2034139178e+00
1.2034899372e+00
1.2035618700e+00
1.2036296372e+00
1.2036932044e+00
1.2037525787e+00
1.2038078043e+00
1.2038589587e+00
1.2039061485e+00
1.2039495049e+00
1.2039891799e+00
1.2040253422e+00
1.2040581732e+00
1.2040878637e+00
1.2041146102e+00
1.2041386122e+00
1.2041600694e+00
1.2041791793e+00
1.2041961350e+00
1.2042111240e+00
1.2042243261e+00
1.2042359130e+00
1.2042460468e+00
1.2042548799e+00
1.2042625546e+00
1.2042692026e+00
1.2042749455e+00
1.2042798947e+00
1.2042841517e+00
1.2042878086e+00
1.2042909486e+00
1.2042936464e+00
1.2042959687e+00
1.2042979750e+00
1.2042997180e+00
1.2043012445e+00
1.2043025952e+00
1.2043038061e+00
1.2043049086e+00
1.2043059296e+00
1.2043068927e+00
1.2043078180e+00
1.2043087225e+00
1.2043096205e+00
1.2043105238e+00
1.2043114422e+00
1.2043123832e+00
1.2043133523e+00
1.2043143536e+00
1.2043153892e+00
1.2043164598e+00
1.2043175648e+00
1.2043187020e+00
1.2043198679e+00
1.2043210580e+00
1.2043222664e+00
1.2043234861e+00
1.2043247090e+00
1.2043259263e+00
1.2043271276e+00
1.2043283021e+00
1.2043294376e+00
1.2043305208e+00
1.2043315372e+00
1.2043324711e+00
1.2043333050e+00
1.2043340194e+00
1.2043345932e+00
1.2043350039e+00
1.2043352292e+00
1.2043352520e+00
1.2043350717e+00
1.2043406699e+00
1.2013652287e+00
1.2013761476e+00
1.2013942593e+00
1.2014214391e+00
1.2014574356e+00
1.2015019126e+00
1.2015544568e+00
1.2016145859e+00
1.2016817558e+00
1.2017553700e+00
1.2018347873e+00
1.2019193320e+00
1.2020083026e+00
1.2021009819e+00
1.2021966453e+00
1.2022945715e+00
1.2023940499e+00
1.2024943899e+00
1.2025949270e+00
1.2026950315e+00
1.2027941122e+00
1.2028916232e+00
1.2029870667e+00
1.2030799965e+00
1.2031700197e+00
1.2032567983e+00
1.2033400486e+00
1.2034195413e+00
1.2034950993e+00
1.2035665963e+00
1.2036339535e+00
1.2036971369e+00
1.2037561530e+00
1.2038110459e+00
1.2038618924e+00
1.2039087983e+00
1.2039518940e+00
1.2039913304e+00
1.2040272751e+00
1.2040599084e+00
1.2040894196e+00
1.2041160042e+00
1.2041398603e+00
1.2041611864e+00
1.2041801787e+00
1.2041970293e+00
1.2042119242e+00
1.2042250426e+00
1.2042365547e+00
1.2042466220e+00
1.2042553958e+00
1.2042630177e+00
1.2042696187e+00
1.2042753197e+00
1.2042802314e+00
1.2042844550e+00
1.2042880820e+00
1.2042911951e+00
1.2042938688e+00
1.2042961694e+00
1.2042981562e+00
1.2042998817e+00
1.2043013923e+00
1.2043027286e+00
1.2043039265e+00
1.2043050170e+00
1.2043060271e+00
1.2043069801e+00
1.2043078958e+00
1.2043087911e+00
1.2043096801e+00
1.2043105746e+00
1.2043114837e+00
1.2043124150e+00
1.2043133738e+00
1.2043143637e+00
1.2043153868e+00
1.2043164436e+00
1.2043175332e+00
1.2043186533e+00
1.2043198003e+00
1.2043209696e+00
1.2043221555e+00
1.2043233509e+00
1.2043245483e+00
1.2043257387e+00
1.2043269127e+00
1.2043280597e+00
1.2043291685e+00
1.2043302270e+00
1.2043312224e+00
1.2043321409e+00
1.2043329683e+00
1.2043336897e+00
1.2043342907e+00
1.2043347584e+00
1.2043350846e+00
1.2043352710e+00
1.2043353398e+00
1.2043414986e+00
1.2013924200e+00
1.2014034587e+00
1.2014214391e+00
1.2014483930e+00
1.2014840723e+00
1.2015281457e+00
1.2015802059e+00
1.2016397763e+00
1.2017063195e+00
1.2017792450e+00
1.2018579188e+00
1.2019416716e+00
1.2020298091e+00
1.2021216206e+00
1.2022163891e+00
1.2023133997e+00
1.2024119489e+00
1.2025113521e+00
1.2026109518e+00
1.2027101234e+00
1.2028082821e+00
1.2029048864e+00
1.2029994435e+00
1.2030915111e+00
1.2031807003e+00
1.2032666756e+00
1.2033491564e+00
1.2034279151e+00
1.2035027763e+00
1.2035736147e+00
1.2036403523e+00
1.2037029548e+00
1.2037614292e+00
1.2038158186e+00
1.2038661992e+00
1.2039126755e+00
1.2039553768e+00
1.2039944523e+00
1.2040300681e+00
1.2040624026e+00
1.2040916435e+00
1.2041179841e+00
1.2041416209e+00
1.2041627503e+00
1.2041815668e+00
1.2041982606e+00
1.2042130162e+00
1.2042260107e+00
1.2042374132e+00
1.2042473835e+00
1.2042560717e+00
1.2042636179e+00
1.2042701523e+00
1.2042757944e+00
1.2042806543e+00
1.2042848322e+00
1.2042884188e+00
1.2042914963e+00
1.2042941384e+00
1.2042964112e+00
1.2042983732e+00
1.2043000767e+00
1.2043015678e+00
1.2043028867e+00
1.2043040690e+00
1.2043051455e+00
1.2043061429e+00
1.2043070843e+00
1.2043079894e+00
1.2043088746e+00
1.2043097540e+00
1.2043106390e+00
1.2043115386e+00
1.2043124600e+00
1.2043134083e+00
1.2043143870e+00
1.2043153978e+00
1.2043164410e+00
1.2043175156e+00
1.2043186191e+00
1.2043197480e+00
1.2043208976e+00
1.2043220621e+00
1.2043232349e+00
1.2043244083e+00
1.2043255742e+00
1.2043267233e+00
1.2043278461e+00
1.2043289321e+00
1.2043299705e+00
1.2043309502e+00
1.2043318596e+00
1.2043326872e+00
1.2043334222e+00
1.2043340549e+00
1.2043345790e+00
1.2043349933e+00
1.2043353066e+00
1.2043355437e+00
1.2043420626e+00
1.2014285598e+00
1.2014396565e+00
1.2014574356e+00
1.2014840723e+00
1.2015193206e+00
1.2015628536e+00
1.2016142698e+00
1.2016730997e+00
1.2017388130e+00
1.2018108279e+00
1.2018885182e+00
1.2019712240e+00
1.2020582594e+00
1.2021489233e+00
1.2022425074e+00
1.2023383065e+00
1.2024356253e+00
1.2025337884e+00
1.2026321462e+00
1.2027300824e+00
1.2028270188e+00
1.2029224214e+00
1.2030158030e+00
1.2031067273e+00
1.2031948095e+00
1.2032797190e+00
1.2033611780e+00
1.2034389620e+00
1.2035128976e+00
1.2035828610e+00
1.2036487748e+00
1.2037106056e+00
1.2037683596e+00
1.2038220796e+00
1.2038718405e+00
1.2039177456e+00
1.2039599223e+00
1.2039985181e+00
1.2040336967e+00
1.2040656343e+00
1.2040945161e+00
1.2041205330e+00
1.2041438790e+00
1.2041647480e+00
1.2041833320e+00
1.2041998189e+00
1.2042143907e+00
1.2042272227e+00
1.2042384816e+00
1.2042483253e+00
1.2042569022e+00
1.2042643506e+00
1.2042707991e+00
1.2042763661e+00
1.2042811602e+00
1.2042852803e+00
1.2042888165e+00
1.2042918498e+00
1.2042944531e+00
1.2042966919e+00
1.2042986241e+00
1.2043003015e+00
1.2043017694e+00
1.2043030680e+00
1.2043042323e+00
1.2043052928e+00
1.2043062759e+00
1.2043072045e+00
1.2043080977e+00
1.2043089721e+00
1.2043098412e+00
1.2043107162e+00
1.2043116059e+00
1.2043125172e+00
1.2043134549e+00
1.2043144224e+00
1.2043154211e+00
1.2043164511e+00
1.2043175112e+00
1.2043185989e+00
1.2043197104e+00
1.2043208412e+00
1.2043219856e+00
1.2043231371e+00
1.2043242884e+00
1.2043254316e+00
1.2043265583e+00
1.2043276595e+00
1.2043287258e+00
1.2043297477e+00
1.2043307155e+00
1.2043316195e+00
1.2043324508e+00
1.2043332012e+00
1.2043338647e+00
1.2043344382e+00
1.2043349237e+00
1.2043353311e+00
1.2043356807e+00
1.2043424324e+00
1.2014732934e+00
1.2014843977e+00
1.2015019126e+00
1.2015281457e+00
1.2015628536e+00
1.2016057140e+00
1.2016563321e+00
1.2017142458e+00
1.2017789341e+00
1.2018498240e+00
1.2019263004e+00
1.2020077131e+00
1.2020933881e+00
1.2021826348e+00
1.2022747568e+00
1.2023690591e+00
1.2024648586e+00
1.2025614895e+00
1.2026583132e+00
1.2027547223e+00
1.2028501484e+00
1.2029440652e+00
1.2030359937e+00
1.2031255037e+00
1.2032122171e+00
1.2032958077e+00
1.2033760027e+00
1.2034525803e+00
1.2035253704e+00
1.2035942504e+00
1.2036591446e+00
1.2037200194e+00
1.2037768814e+00
1.2038297721e+00
1.2038787656e+00
1.2039239632e+00
1.2039654902e+00
1.2040034918e+00
1.2040381289e+00
1.2040695750e+00
1.2040980124e+00
1.2041236288e+00
1.2041466152e+00
1.2041671623e+00
1.2041854593e+00
1.2042016909e+00
1.2042160366e+00
1.2042286685e+00
1.2042397511e+00
1.2042494397e+00
1.2042578805e+00
1.2042652098e+00
1.2042715541e+00
1.2042770301e+00
1.2042817448e+00
1.2042857958e+00
1.2042892718e+00
1.2042922526e+00
1.2042948103e+00
1.2042970093e+00
1.2042989069e+00
1.2043005539e+00
1.2043019954e+00
1.2043032708e+00
1.2043044148e+00
1.2043054574e+00
1.2043064247e+00
1.2043073391e+00
1.2043082196e+00
1.2043090822e+00
1.2043099404e+00
1.2043108049e+00
1.2043116844e+00
1.2043125854e+00
1.2043135126e+00
1.2043144690e+00
1.2043154557e+00
1.2043164729e+00
1.2043175190e+00
1.2043185914e+00
1.2043196865e+00
1.2043207995e+00
1.2043219249e+00
1.2043230564e+00
1.2043241871e+00
1.2043253095e+00
1.2043264158e+00
1.2043274977e+00
1.2043285467e+00
1.2043295545e+00
1.2043305127e+00
1.2043314133e+00
1.2043322492e+00
1.2043330144e+00
1.2043337046e+00
1.2043343187e+00
1.2043348594e+00
1.2043353349e+00
1.2043357597e+00
1.2043426633e+00
1.2015261930e+00
1.2015372631e+00
1.2015544568e+00
1.2015802059e+00
1.2016142698e+00
1.2016563321e+00
1.2017060049e+00
1.2017628353e+00
1.2018263119e+00
1.2018958735e+00
1.2019709158e+00
1.2020508021e+00
1.2021348704e+00
1.2022224439e+00
1.2023128388e+00
1.2024053742e+00
1.2024993787e+00
1.2025942002e+00
1.2026892111e+00
1.2027838164e+00
1.2028774576e+00
1.2029696189e+00
1.2030598296e+00
1.2031476683e+00
1.2032327632e+00
1.2033147949e+00
1.2033934948e+00
1.2034686460e+00
1.2035400809e+00
1.2036076796e+00
1.2036713673e+00
1.2037311113e+00
1.2037869176e+00
1.2038388273e+00
1.2038869124e+00
1.2039312727e+00
1.2039720308e+00
1.2040093292e+00
1.2040433256e+00
1.2040741903e+00
1.2041021018e+00
1.2041272446e+00
1.2041498057e+00
1.2041699726e+00
1.2041879305e+00
1.2042038609e+00
1.2042179397e+00
1.2042303360e+00
1.2042412111e+00
1.2042507175e+00
1.2042589986e+00
1.2042661884e+00
1.2042724110e+00
1.2042777810e+00
1.2042824035e+00
1.2042863745e+00
1.2042897809e+00
1.2042927015e+00
1.2042952070e+00
1.2042973606e+00
1.2042992189e+00
1.2043008318e+00
1.2043022437e+00
1.2043034934e+00
1.2043046148e+00
1.2043056378e+00
1.2043065877e+00
1.2043074867e+00
1.2043083535e+00
1.2043092037e+00
1.2043100503e+00
1.2043109040e+00
1.2043117730e+00
1.2043126636e+00
1.2043135802e+00
1.2043145255e+00
1.2043155006e+00
1.2043165053e+00
1.2043175378e+00
1.2043185957e+00
1.2043196750e+00
1.2043207711e+00
1.2043218786e+00
1.2043229914e+00
1.2043241029e+00
1.2043252061e+00
1.2043262936e+00
1.2043273578e+00
1.2043283914e+00
1.2043293867e+00
1.2043303366e+00
1.2043312346e+00
1.2043320746e+00
1.2043328521e+00
1.2043335642e+00
1.2043342102e+00
1.2043347923e+00
1.2043353165e+00
1.2043357922e+00
1.2043427953e+00
1.2015867651e+00
1.2015977644e+00
1.2016145859e+00
1.2016397763e+00
1.2016730997e+00
1.2017142458e+00
1.2017628353e+00
1.2018184249e+00
1.2018805150e+00
1.2019485560e+00
1.2020219581e+00
1.2021000976e+00
1.2021823282e+00
1.2022679873e+00
1.2023564068e+00
1.2024469200e+00
1.2025388713e+00
1.2026316219e+00
1.2027245590e+00
1.2028170995e+00
1.2029086983e+00
1.2029988498e+00
1.2030870946e+00
1.2031730195e+00
1.2032562618e+00
1.2033365080e+00
1.2034134963e+00
1.2034870137e+00
1.2035568967e+00
1.2036230275e+00
1.2036853333e+00
1.2037437817e+00
1.2037983787e+00
1.2038491641e+00
1.2038962086e+00
1.2039396093e+00
1.2039794865e+00
1.2040159790e+00
1.2040492414e+00
1.2040794397e+00
1.2041067489e+00
1.2041313491e+00
1.2041534234e+00
1.2041731547e+00
1.2041907246e+00
1.2042063103e+00
1.2042200841e+00
1.2042322112e+00
1.2042428494e+00
1.2042521480e+00
1.2042602473e+00
1.2042672783e+00
1.2042733627e+00
1.2042786125e+00
1.2042831308e+00
1.2042870114e+00
1.2042903397e+00
1.2042931927e+00
1.2042956397e+00
1.2042977429e+00
1.2042995575e+00
1.2043011328e+00
1.2043025120e+00
1.2043037334e+00
1.2043048304e+00
1.2043058319e+00
1.2043067632e+00
1.2043076457e+00
1.2043084979e+00
1.2043093349e+00
1.2043101695e+00
1.2043110119e+00
1.2043118702e+00
1.2043127503e+00
1.2043136563e+00
1.2043145907e+00
1.2043155544e+00
1.2043165468e+00
1.2043175664e+00
1.2043186102e+00
1.2043196745e+00
1.2043207546e+00
1.2043218452e+00
1.2043229405e+00
1.2043240340e+00
1.2043251192e+00
1.2043261893e+00
1.2043272373e+00
1.2043282566e+00
1.2043292404e+00
1.2043301827e+00
1.2043310777e+00
1.2043319206e+00
1.2043327077e+00
1.2043334366e+00
1.2043341067e+00
1.2043347193e+00
1.2043352782e+00
1.2043357886e+00
1.2043428567e+00
1.2016544561e+00
1.2016653531e+00
1.2016817558e+00
1.2017063195e+00
1.2017388130e+00
1.2017789341e+00
1.2018263119e+00
1.2018805150e+00
1.2019410554e+00
1.2020073983e+00
1.2020789677e+00
1.2021551569e+00
1.2022353346e+00
1.2023188559e+00
1.2024050686e+00
1.2024933238e+00
1.2025829811e+00
1.2026734190e+00
1.2027640389e+00
1.2028542734e+00
1.2029435898e+00
1.2030314964e+00
1.2031175440e+00
1.2032013309e+00
1.2032825023e+00
1.2033607535e+00
1.2034358283e+00
1.2035075199e+00
1.2035756678e+00
1.2036401580e+00
1.2037009186e+00
1.2037579186e+00
1.2038111632e+00
1.2038606916e+00
1.2039065723e+00
1.2039489001e+00
1.2039877919e+00
1.2040233833e+00
1.2040558247e+00
1.2040852780e+00
1.2041119136e+00
1.2041359072e+00
1.2041574371e+00
1.2041766818e+00
1.2041938180e+00
1.2042090188e+00
1.2042224518e+00
1.2042342784e+00
1.2042446524e+00
1.2042537194e+00
1.2042616162e+00
1.2042684707e+00
1.2042744015e+00
1.2042795180e+00
1.2042839208e+00
1.2042877015e+00
1.2042909435e+00
1.2042937221e+00
1.2042961049e+00
1.2042981528e+00
1.2042999199e+00
1.2043014541e+00
1.2043027979e+00
1.2043039888e+00
1.2043050593e+00
1.2043060380e+00
1.2043069493e+00
1.2043078144e+00
1.2043086510e+00
1.2043094743e+00
1.2043102964e+00
1.2043111272e+00
1.2043119745e+00
1.2043128440e+00
1.2043137394e+00
1.2043146631e+00
1.2043156155e+00
1.2043165962e+00
1.2043176033e+00
1.2043186337e+00
1.2043196836e+00
1.2043207485e+00
1.2043218231e+00
1.2043229018e+00
1.2043239784e+00
1.2043250468e+00
1.2043261005e+00
1.2043271333e+00
1.2043281391e+00
1.2043291121e+00
1.2043300467e+00
1.2043309382e+00
1.2043317824e+00
1.2043325762e+00
1.2043333174e+00
1.2043340051e+00
1.2043346398e+00
1.2043352232e+00
1.2043357579e+00
1.2043428678e+00
1.2017286612e+00
1.2017394274e+00
1.2017553700e+00
1.2017792450e+00
1.2018108279e+00
1.2018498240e+00
1.2018958735e+00
1.2019485560e+00
1.2020073983e+00
1.2020718797e+00
1.2021414414e+00
1.2022154927e+00
1.2022934214e+00
1.2023745997e+00
1.2024583948e+00
1.2025441749e+00
1.2026313191e+00
1.2027192219e+00
1.2028073028e+00
1.2028950093e+00
1.2029818248e+00
1.2030672701e+00
1.2031509099e+00
1.2032323525e+00
1.2033112542e+00
1.2033873179e+00
1.2034602953e+00
1.2035299844e+00
1.2035962301e+00
1.2036589208e+00
1.2037179872e+00
1.2037733985e+00
1.2038251601e+00
1.2038733096e+00
1.2039179138e+00
1.2039590646e+00
1.2039968757e+00
1.2040314785e+00
1.2040630193e+00
1.2040916553e+00
1.2041175521e+00
1.2041408803e+00
1.2041618132e+00
1.2041805241e+00
1.2041971849e+00
1.2042119637e+00
1.2042250234e+00
1.2042365209e+00
1.2042466056e+00
1.2042554191e+00
1.2042630944e+00
1.2042697559e+00
1.2042755190e+00
1.2042804902e+00
1.2042847671e+00
1.2042884392e+00
1.2042915875e+00
1.2042942854e+00
1.2042965988e+00
1.2042985870e+00
1.2043003028e+00
1.2043017929e+00
1.2043030989e+00
1.2043042571e+00
1.2043052995e+00
1.2043062538e+00
1.2043071441e+00
1.2043079908e+00
1.2043088113e+00
1.2043096201e+00
1.2043104293e+00
1.2043112483e+00
1.2043120844e+00
1.2043129432e+00
1.2043138281e+00
1.2043147411e+00
1.2043156827e+00
1.2043166519e+00
1.2043176468e+00
1.2043186644e+00
1.2043197006e+00
1.2043207511e+00
1.2043218105e+00
1.2043228735e+00
1.2043239341e+00
1.2043249866e+00
1.2043260249e+00
1.2043270433e+00
1.2043280363e+00
1.2043289985e+00
1.2043299253e+00
1.2043308124e+00
1.2043316563e+00
1.2043324541e+00
1.2043332036e+00
1.2043339039e+00
1.2043345544e+00
1.2043351554e+00
1.2043357072e+00
1.2043428433e+00
1.2018087315e+00
1.2018193418e+00
1.2018347873e+00
1.2018579188e+00
1.2018885182e+00
1.2019263004e+00
1.2019709158e+00
1.2020219581e+00
1.2020789677e+00
1.2021414414e+00
1.2022088367e+00
1.2022805825e+00
1.2023560846e+00
1.2024347360e+00
1.2025159226e+00
1.2025990335e+00
1.2026834658e+00
1.2027686344e+00
1.2028539756e+00
1.2029389554e+00
1.2030230719e+00
1.2031058622e+00
1.2031869034e+00
1.2032658170e+00
1.2033422690e+00
1.2034159724e+00
1.2034866857e+00
1.2035542142e+00
1.2036184065e+00
1.2036791553e+00
1.2037363926e+00
1.2037900891e+00
1.2038402495e+00
1.2038869106e+00
1.2039301366e+00
1.2039700168e+00
1.2040066608e+00
1.2040401963e+00
1.2040707647e+00
1.2040985183e+00
1.2041236173e+00
1.2041462271e+00
1.2041665153e+00
1.2041846501e+00
1.2042007977e+00
1.2042151210e+00
1.2042277779e+00
1.2042389203e+00
1.2042486931e+00
1.2042572333e+00
1.2042646701e+00
1.2042711239e+00
1.2042767065e+00
1.2042815213e+00
1.2042856632e+00
1.2042892187e+00
1.2042922666e+00
1.2042948781e+00
1.2042971174e+00
1.2042990420e+00
1.2043007031e+00
1.2043021464e+00
1.2043034122e+00
1.2043045359e+00
1.2043055487e+00
1.2043064774e+00
1.2043073456e+00
1.2043081731e+00
1.2043089767e+00
1.2043097708e+00
1.2043105666e+00
1.2043113734e+00
1.2043121983e+00
1.2043130463e+00
1.2043139208e+00
1.2043148233e+00
1.2043157541e+00
1.2043167123e+00
1.2043176955e+00
1.2043187007e+00
1.2043197239e+00
1.2043207606e+00
1.2043218056e+00
1.2043228537e+00
1.2043238992e+00
1.2043249366e+00
1.2043259602e+00
1.2043269648e+00
1.2043279453e+00
1.2043288970e+00
1.2043298156e+00
1.2043306976e+00
1.2043315396e+00
1.2043323390e+00
1.2043330939e+00
1.2043338027e+00
1.2043344643e+00
1.2043350779e+00
1.2043356423e+00
1.2043427943e+00
1.2018939838e+00
1.2019044156e+00
1.2019193320e+00
1.2019416716e+00
1.2019712240e+00
1.2020077131e+00
1.2020508021e+00
1.2021000976e+00
1.2021551569e+00
1.2022154927e+00
1.2022805825e+00
1.2023498736e+00
1.2024227933e+00
1.2024987543e+00
1.2025771648e+00
1.2026574336e+00
1.2027389799e+00
1.2028212372e+00
1.2029036625e+00
1.2029857387e+00
1.2030669825e+00
1.2031469456e+00
1.2032252206e+00
1.2033014410e+00
1.2033752850e+00
1.2034464747e+00
1.2035147776e+00
1.2035800046e+00
1.2036420107e+00
1.2037006909e+00
1.2037559805e+00
1.2038078503e+00
1.2038563055e+00
1.2039013809e+00
1.2039431390e+00
1.2039816653e+00
1.2040170663e+00
1.2040494646e+00
1.2040789970e+00
1.2041058104e+00
1.2041300596e+00
1.2041519039e+00
1.2041715055e+00
1.2041890264e+00
1.2042046274e+00
1.2042184656e+00
1.2042306935e+00
1.2042414579e+00
1.2042508986e+00
1.2042591481e+00
1.2042663310e+00
1.2042725639e+00
1.2042779548e+00
1.2042826036e+00
1.2042866021e+00
1.2042900340e+00
1.2042929756e+00
1.2042954958e+00
1.2042976567e+00
1.2042995141e+00
1.2043011177e+00
1.2043025117e+00
1.2043037353e+00
1.2043048229e+00
1.2043058046e+00
1.2043067067e+00
1.2043075518e+00
1.2043083594e+00
1.2043091457e+00
1.2043099244e+00
1.2043107066e+00
1.2043115010e+00