# vtk DataFile Version 2.0
Blank
ASCII
DATASET STRUCTURED_GRID
DIMENSIONS 101 101 2
POINTS 20402 float
0.0000000000e+00 0.0000000000e+00 0.0000000000e+00
1.0000000000e-02 0.0000000000e+00 0.0000000000e+00
2.0000000000e-02 0.0000000000e+00 0.0000000000e+00
3.0000000000e-02 0.0000000000e+00 0.0000000000e+00
4.0000000000e-02 0.0000000000e+00 0.0000000000e+00
5.0000000000e-02 0.0000000000e+00 0.0000000000e+00
6.0000000000e-02 0.0000000000e+00 0.0000000000e+00
7.0000000000e-02 0.0000000000e+00 0.0000000000e+00
8.0000000000e-02 0.0000000000e+00 0.0000000000e+00
9.0000000000e-02 0.0000000000e+00 0.0000000000e+00
1.0000000000e-01 0.0000000000e+00 0.0000000000e+00
1.1000000000e-01 0.0000000000e+00 0.0000000000e+00
1.2000000000e-01 0.0000000000e+00 0.0000000000e+00
1.3000000000e-01 0.0000000000e+00 0.0000000000e+00
1.4000000000e-01 0.0000000000e+00 0.0000000000e+00
1.5000000000e-01 0.0000000000e+00 0.0000000000e+00
1.6000000000e-01 0.0000000000e+00 0.0000000000e+00
1.7000000000e-01 0.0000000000e+00 0.0000000000e+00
1.8000000000e-01 0.0000000000e+00 0.0000000000e+00
1.9000000000e-01 0.0000000000e+00 0.0000000000e+00
2.0000000000e-01 0.0000000000e+00 0.0000000000e+00
2.1000000000e-01 0.0000000000e+00 0.0000000000e+00
2.2000000000e-01 0.0000000000e+00 0.0000000000e+00
2.3000000000e-01 0.0000000000e+00 0.0000000000e+00
2.4000000000e-01 0.0000000000e+00 0.0000000000e+00
2.5000000000e-01 0.0000000000e+00 0.0000000000e+00
2.6000000000e-01 0.0000000000e+00 0.0000000000e+00
2.7000000000e-01 0.0000000000e+00 0.0000000000e+00
2.8000000000e-01 0.0000000000e+00 0.0000000000e+00
2.9000000000e-01 0.0000000000e+00 0.0000000000e+00
3.0000000000e-01 0.0000000000e+00 0.0000000000e+00
3.1000000000e-01 0.0000000000e+00 0.0000000000e+00
3.2000000000e-01 0.0000000000e+00 0.0000000000e+00
3.3000000000e-01 0.0000000000e+00 0.0000000000e+00
3.4000000000e-01 0.0000000000e+00 0.0000000000e+00
3.5000000000e-01 0.0000000000e+00 0.0000000000e+00
3.6000000000e-01 0.0000000000e+00 0.0000000000e+00
3.7000000000e-01 0.0000000000e+00 0.0000000000e+00
3.8000000000e-01 0.0000000000e+00 0.0000000000e+00
3.9000000000e-01 0.0000000000e+00 0.0000000000e+00
4.0000000000e-01 0.0000000000e+00 0.0000000000e+00
4.1000000000e-01 0.0000000000e+00 0.0000000000e+00
4.2000000000e-01 0.0000000000e+00 0.0000000000e+00
4.3000000000e-01 0.0000000000e+00 0.0000000000e+00
4.4000000000e-01 0.0000000000e+00 0.0000000000e+00
4.5000000000e-01 0.0000000000e+00 0.0000000000e+00
4.6000000000e-01 0.0000000000e+00 0.0000000000e+00
4.7000000000e-01 0.0000000000e+00 0.0000000000e+00
4.8000000000e-01 0.0000000000e+00 0.0000000000e+00
4.9000000000e-01 0.0000000000e+00 0.0000000000e+00
5.0000000000e-01 0.0000000000e+00 0.0000000000e+00
5.1000000000e-01 0.0000000000e+00 0.0000000000e+00
5.2000000000e-01 0.0000000000e+00 0.0000000000e+00
5.3000000000e-01 0.0000000000e+00 0.0000000000e+00
5.4000000000e-01 0.0000000000e+00 0.0000000000e+00
5.5000000000e-01 0.0000000000e+00 0.0000000000e+00
5.6000000000e-01 0.0000000000e+00 0.0000000000e+00
5.7000000000e-01 0.0000000000e+00 0.0000000000e+00
5.8000000000e-01 0.0000000000e+00 0.0000000000e+00
5.9000000000e-01 0.0000000000e+00 0.0000000000e+00
6.0000000000e-01 0.0000000000e+00 0.0000000000e+00
6.1000000000e-01 0.0000000000e+00 0.0000000000e+00
6.2000000000e-01 0.0000000000e+00 0.0000000000e+00
6.3000000000e-01 0.0000000000e+00 0.0000000000e+00
6.4000000000e-01 0.0000000000e+00 0.0000000000e+00
6.5000000000e-01 0.0000000000e+00 0.0000000000e+00
6.6000000000e-01 0.0000000000e+00 0.0000000000e+00
6.7000000000e-01 0.0000000000e+00 0.0000000000e+00
6.8000000000e-01 0.0000000000e+00 0.0000000000e+00
6.9000000000e-01 0.0000000000e+00 0.0000000000e+00
7.0000000000e-01 0.0000000000e+00 0.0000000000e+00
7.1000000000e-01 0.0000000000e+00 0.0000000000e+00
7.2000000000e-01 0.0000000000e+00 0.0000000000e+00
7.3000000000e-01 0.0000000000e+00 0.0000000000e+00
7.4000000000e-01 0.0000000000e+00 0.0000000000e+00
7.5000000000e-01 0.0000000000e+00 0.0000000000e+00
7.6000000000e-01 0.0000000000e+00 0.0000000000e+00
7.7000000000e-01 0.0000000000e+00 0.0000000000e+00
7.8000000000e-01 0.0000000000e+00 0.0000000000e+00
7.9000000000e-01 0.0000000000e+00 0.0000000000e+00
8.0000000000e-01 0.0000000000e+00 0.0000000000e+00
8.1000000000e-01 0.0000000000e+00 0.0000000000e+00
8.2000000000e-01 0.0000000000e+00 0.0000000000e+00
8.3000000000e-01 0.0000000000e+00 0.0000000000e+00
8.4000000000e-01 0.0000000000e+00 0.0000000000e+00
8.5000000000e-01 0.0000000000e+00 0.0000000000e+00
8.6000000000e-01 0.0000000000e+00 0.0000000000e+00
8.7000000000e-01 0.0000000000e+00 0.0000000000e+00
8.8000000000e-01 0.0000000000e+00 0.0000000000e+00
8.9000000000e-01 0.0000000000e+00 0.0000000000e+00
9.0000000000e-01 0.0000000000e+00 0.0000000000e+00
9.1000000000e-01 0.0000000000e+00 0.0000000000e+00
9.2000000000e-01 0.0000000000e+00 0.0000000000e+00
9.3000000000e-01 0.0000000000e+00 0.0000000000e+00
9.4000000000e-01 0.0000000000e+00 0.0000000000e+00
9.5000000000e-01 0.0000000000e+00 0.0000000000e+00
9.6000000000e-01 0.0000000000e+00 0.0000000000e+00
9.7000000000e-01 0.0000000000e+00 0.0000000000e+00
9.8000000000e-01 0.0000000000e+00 0.0000000000e+00
9.9000000000e-01 0.0000000000e+00 0.0000000000e+00
1.0000000000e+00 0.0000000000e+00 0.0000000000e+00
0.0000000000e+00 1.0000000000e-02 0.0000000000e+00
1.0000000000e-02 1.0000000000e-02 0.0000000000e+00
2.0000000000e-02 1.0000000000e-02 0.0000000000e+00
3.0000000000e-02 1.0000000000e-02 0.0000000000e+00
4.0000000000e-02 1.0000000000e-02 0.0000000000e+00
5.0000000000e-02 1.0000000000e-02 0.0000000000e+00
6.0000000000e-02 1.0000000000e-02 0.0000000000e+00
7.0000000000e-02 1.0000000000e-02 0.0000000000e+00
8.0000000000e-02 1.0000000000e-02 0.0000000000e+00
9.0000000000e-02 1.0000000000e-02 0.0000000000e+00
1.0000000000e-01 1.0000000000e-02 0.0000000000e+00
1.1000000000e-01 1.0000000000e-02 0.0000000000e+00
1.2000000000e-01 1.0000000000e-02 0.0000000000e+00
1.3000000000e-01 1.0000000000e-02 0.0000000000e+00
1.4000000000e-01 1.0000000000e-02 0.0000000000e+00
1.5000000000e-01 1.0000000000e-02 0.0000000000e+00
1.6000000000e-01 1.0000000000e-02 0.0000000000e+00
1.7000000000e-01 1.0000000000e-02 0.0000000000e+00
1.8000000000e-01 1.0000000000e-02 0.0000000000e+00
1.9000000000e-01 1.0000000000e-02 0.0000000000e+00
2.0000000000e-01 1.0000000000e-02 0.0000000000e+00
2.1000000000e-01 1.0000000000e-02 0.0000000000e+00
2.2000000000e-01 1.0000000000e-02 0.0000000000e+00
2.3000000000e-01 1.0000000000e-02 0.0000000000e+00
2.4000000000e-01 1.0000000000e-02 0.0000000000e+00
2.5000000000e-01 1.0000000000e-02 0.0000000000e+00
2.6000000000e-01 1.0000000000e-02 0.0000000000e+00
2.7000000000e-01 1.0000000000e-02 0.0000000000e+00
2.8000000000e-01 1.0000000000e-02 0.0000000000e+00
2.9000000000e-01 1.0000000000e-02 0.0000000000e+00
3.0000000000e-01 1.0000000000e-02 0.0000000000e+00
3.1000000000e-01 1.0000000000e-02 0.0000000000e+00
3.2000000000e-01 1.0000000000e-02 0.0000000000e+00
3.3000000000e-01 1.0000000000e-02 0.0000000000e+00
3.4000000000e-01 1.0000000000e-02 0.0000000000e+00
3.5000000000e-01 1.0000000000e-02 0.0000000000e+00
3.6000000000e-01 1.0000000000e-02 0.0000000000e+00
3.7000000000e-01 1.0000000000e-02 0.0000000000e+00
3.8000000000e-01 1.0000000000e-02 0.0000000000e+00
3.9000000000e-01 1.0000000000e-02 0.0000000000e+00
4.0000000000e-01 1.0000000000e-02 0.0000000000e+00
4.1000000000e-01 1.0000000000e-02 0.0000000000e+00
4.2000000000e-01 1.0000000000e-02 0.0000000000e+00
4.3000000000e-01 1.0000000000e-02 0.0000000000e+00
4.4000000000e-01 1.0000000000e-02 0.0000000000e+00
4.5000000000e-01 1.0000000000e-02 0.0000000000e+00
4.6000000000e-01 1.0000000000e-02 0.0000000000e+00
4.7000000000e-01 1.0000000000e-02 0.0000000000e+00
4.8000000000e-01 1.0000000000e-02 0.0000000000e+00
4.9000000000e-01 1.0000000000e-02 0.0000000000e+00
5.0000000000e-01 1.0000000000e-02 0.0000000000e+00
5.1000000000e-01 1.0000000000e-02 0.0000000000e+00
5.2000000000e-01 1.0000000000e-02 0.0000000000e+00
5.3000000000e-01 1.0000000000e-02 0.0000000000e+00
5.4000000000e-01 1.0000000000e-02 0.0000000000e+00
5.5000000000e-01 1.0000000000e-02 0.0000000000e+00
5.6000000000e-01 1.0000000000e-02 0.0000000000e+00
5.7000000000e-01 1.0000000000e-02 0.0000000000e+00
5.8000000000e-01 1.0000000000e-02 0.0000000000e+00
5.9000000000e-01 1.0000000000e-02 0.0000000000e+00
6.0000000000e-01 1.0000000000e-02 0.0000000000e+00
6.1000000000e-01 1.0000000000e-02 0.0000000000e+00
6.2000000000e-01 1.0000000000e-02 0.0000000000e+00
6.3000000000e-01 1.0000000000e-02 0.0000000000e+00
6.4000000000e-01 1.0000000000e-02 0.0000000000e+00
6.5000000000e-01 1.0000000000e-02 0.0000000000e+00
6.6000000000e-01 1.0000000000e-02 0.0000000000e+00
6.7000000000e-01 1.0000000000e-02 0.0000000000e+00
6.8000000000e-01 1.0000000000e-02 0.0000000000e+00
6.9000000000e-01 1.0000000000e-02 0.0000000000e+00
7.0000000000e-01 1.0000000000e-02 0.0000000000e+00
7.1000000000e-01 1.0000000000e-02 0.0000000000e+00
7.2000000000e-01 1.0000000000e-02 0.0000000000e+00
7.3000000000e-01 1.0000000000e-02 0.0000000000e+00
7.4000000000e-01 1.0000000000e-02 0.0000000000e+00
7.5000000000e-01 1.0000000000e-02 0.0000000000e+00
7.6000000000e-01 1.0000000000e-02 0.0000000000e+00
7.7000000000e-01 1.0000000000e-02 0.0000000000e+00
7.8000000000e-01 1.0000000000e-02 0.0000000000e+00
7.9000000000e-01 1.0000000000e-02 0.0000000000e+00
8.0000000000e-01 1.0000000000e-02 0.0000000000e+00
8.1000000000e-01 1.0000000000e-02 0.0000000000e+00
8.2000000000e-01 1.0000000000e-02 0.0000000000e+00
8.3000000000e-01 1.0000000000e-02 0.0000000000e+00
8.4000000000e-01 1.0000000000e-02 0.0000000000e+00
8.5000000000e-01 1.0000000000e-02 0.0000000000e+00
8.6000000000e-01 1.0000000000e-02 0.0000000000e+00
8.7000000000e-01 1.0000000000e-02 0.0000000000e+00
8.8000000000e-01 1.0000000000e-02 0.0000000000e+00
8.9000000000e-01 1.0000000000e-02 0.0000000000e+00
9.0000000000e-01 1.0000000000e-02 0.0000000000e+00
9.1000000000e-01 1.0000000000e-02 0.0000000000e+00
9.2000000000e-01 1.0000000000e-02 0.0000000000e+00
[...]
CELL_DATA 10000

SCALARS massDensity float
LOOKUP_TABLE default
1.1777164228e+00
1.1786229679e+00
1.1798655485e+00
1.1816387037e+00
1.1838093268e+00
1.1862266234e+00
1.1887393826e+00
1.1912093832e+00
1.1935237477e+00
1.1956007013e+00
1.1973925166e+00
1.1988823777e+00
1.2000796492e+00
1.2010120987e+00
1.2017189619e+00
1.2022438977e+00
1.2026302135e+00
1.2029172260e+00
1.2031387116e+00
1.2033222819e+00
1.2034898581e+00
1.2036584284e+00
1.2038409490e+00
1.2040470635e+00
1.2042833766e+00
1.2045534091e+00
1.2048568943e+00
1.2051890478e+00
1.2055395049e+00
1.2058920805e+00
1.2062249843e+00
1.2065128794e+00
1.2067297068e+00
1.2068532997e+00
1.2068693527e+00
1.2067754665e+00
1.2065819924e+00
1.2063114175e+00
1.2059937926e+00
1.2056619543e+00
1.2053452172e+00
1.2050657268e+00
1.2048358704e+00
1.2046590401e+00
1.2045313330e+00
1.2044446501e+00
1.2043892543e+00
1.2043559198e+00
1.2043370177e+00
1.2043269216e+00
1.2043218420e+00
1.2043194362e+00
1.2043183643e+00
1.2043179154e+00
1.2043177389e+00
1.2043176738e+00
1.2043176513e+00
1.2043176440e+00
1.2043176418e+00
1.2043176412e+00
1.2043176411e+00
1.2043176410e+00
1.2043176410e+00
1.2043176410e+00
1.2043176410e+00
1.2043176410e+00
1.2043176410e+00
1.2043176410e+00
1.2043176410e+00
1.2043176410e+00
1.2043176410e+00
1.2043176410e+00
1.2043176410e+00
1.2043176410e+00
1.2043176410e+00
1.2043176410e+00
1.2043176410e+00
1.2043176410e+00
1.2043176410e+00
1.2043176410e+00
1.2043176410e+00
1.2043176410e+00
1.2043176410e+00
1.2043176410e+00
1.2043176410e+00
1.2043176410e+00
1.2043176410e+00
1.2043176410e+00
1.2043176410e+00
1.2043176410e+00
1.2043176410e+00
1.2043176410e+00
1.2043176410e+00
1.2043176410e+00
1.2043176410e+00
1.2043176410e+00
1.2043176410e+00
1.2043176410e+00
1.2043176410e+00
1.2043176410e+00
1.1786229679e+00
1.1795637973e+00
1.1807997250e+00
1.1825433243e+00
1.1846678854e+00
1.1870293694e+00
1.1894807146e+00
1.1918885100e+00
1.1941422604e+00
1.1961630807e+00
1.1979039998e+00
1.1993492219e+00
1.2005074799e+00
1.2014060703e+00
1.2020826604e+00
1.2025795090e+00
1.2029379040e+00
1.2031953088e+00
1.2033833413e+00
1.2035275943e+00
1.2036479097e+00
1.2037594159e+00
1.2038735622e+00
1.2039991350e+00
1.2041430300e+00
1.2043105038e+00
1.2045050946e+00
1.2047277789e+00
1.2049760385e+00
1.2052424848e+00
1.2055142997e+00
1.2057731673e+00
1.2059971483e+00
1.2061634116e+00
1.2062528001e+00
1.2062535728e+00
1.2061651618e+00
1.2059983156e+00
1.2057741186e+00
1.2055189414e+00
1.2052601681e+00
1.2050204781e+00
1.2048155648e+00
1.2046524932e+00
1.2045313272e+00
1.2044469241e+00
1.2043917670e+00
1.2043578780e+00
1.2043383067e+00
1.2043276724e+00
1.2043222392e+00
1.2043196290e+00
1.2043184506e+00
1.2043179512e+00
1.2043177526e+00
1.2043176787e+00
1.2043176529e+00
1.2043176445e+00
1.2043176420e+00
1.2043176412e+00
1.2043176411e+00
1.2043176410e+00
1.2043176410e+00
1.2043176410e+00
1.2043176410e+00
1.2043176410e+00
1.2043176410e+00
1.2043176410e+00
1.2043176410e+00
1.2043176410e+00
1.2043176410e+00
1.2043176410e+00
1.2043176410e+00
1.2043176410e+00
1.2043176410e+00
1.2043176410e+00
1.2043176410e+00
1.2043176410e+00
1.2043176410e+00
1.2043176410e+00
1.2043176410e+00
1.2043176410e+00
1.2043176410e+00
1.2043176410e+00
1.2043176410e+00
1.2043176410e+00
1.2043176410e+00
1.2043176410e+00
1.2043176410e+00
1.2043176410e+00
1.2043176410e+00
1.2043176410e+00
1.2043176410e+00
1.2043176410e+00
1.2043176410e+00
1.2043176410e+00
1.2043176410e+00
1.2043176410e+00
1.2043176410e+00
1.2043176410e+00
1.1798655485e+00
1.1807997250e+00
1.1819843239e+00
1.1836461823e+00
1.1856672750e+00
1.1879105931e+00
1.1902382670e+00
1.1925228807e+00
1.1946609118e+00
1.1965767614e+00
1.1982269253e+00
1.1995958989e+00
1.2006927247e+00
1.2015429187e+00
1.2021826255e+00
1.2026515677e+00
1.2029889884e+00
1.2032300010e+00
1.2034043973e+00
1.2035359686e+00
1.2036431867e+00
1.2037400152e+00
1.2038371577e+00
1.2039431436e+00
1.2040652270e+00
1.2042099005e+00
1.2043827209e+00
1.2045875933e+00
1.2048252265e+00
1.2050914669e+00
1.2053756291e+00
1.2056600463e+00
1.2059210039e+00
1.2061319742e+00
1.2062680790e+00
1.2063117801e+00
1.2062568274e+00
1.2061109541e+00
1.2058938478e+00
1.2056339085e+00
1.2053612815e+00
1.2051031052e+00
1.2048783855e+00
1.2046972964e+00
1.2045612319e+00
1.2044657166e+00
1.2044028445e+00
1.2043640305e+00
1.2043415140e+00
1.2043292459e+00
1.2043229635e+00
1.2043199418e+00
1.2043185773e+00
1.2043179991e+00
1.2043177696e+00
1.2043176843e+00
1.2043176546e+00
1.2043176450e+00
1.2043176421e+00
1.2043176413e+00
1.2043176411e+00
1.2043176410e+00
1.2043176410e+00
1.2043176410e+00
1.2043176410e+00
1.2043176410e+00
1.2043176410e+00
1.2043176410e+00
1.2043176410e+00
1.2043176410e+00
1.2043176410e+00
1.2043176410e+00
1.2043176410e+00
1.2043176410e+00
1.2043176410e+00
1.2043176410e+00
1.2043176410e+00
1.2043176410e+00
1.2043176410e+00
1.2043176410e+00
1.2043176410e+00
1.2043176410e+00
1.2043176410e+00
1.2043176410e+00
1.2043176410e+00
1.2043176410e+00
1.2043176410e+00
1.2043176410e+00
1.2043176410e+00
1.2043176410e+00
1.2043176410e+00
1.2043176410e+00
1.2043176410e+00
1.2043176410e+00
1.2043176410e+00
1.2043176410e+00
1.2043176410e+00
1.2043176410e+00
1.2043176410e+00
1.2043176410e+00
1.1816387037e+00
1.1825433243e+00
1.1836461823e+00
1.1851884294e+00
1.1870599552e+00
1.1891357980e+00
1.1912874006e+00
1.1933986735e+00
1.1953729013e+00
1.1971416670e+00
1.1986640056e+00
1.1999266895e+00
1.2009375491e+00
1.2017208504e+00
1.2023095708e+00
1.2027407096e+00
1.2030501100e+00
1.2032701913e+00
1.2034280263e+00
1.2035453602e+00
1.2036388373e+00
1.2037211506e+00
1.2038021225e+00
1.2038899936e+00
1.2039924078e+00
1.2041170019e+00
1.2042713406e+00
1.2044619338e+00
1.2046924684e+00
1.2049614102e+00
1.2052597692e+00
1.2055698685e+00
1.2058660591e+00
1.2061178493e+00
1.2062953338e+00
1.2063753710e+00
1.2063475763e+00
1.2062167255e+00
1.2060027779e+00
1.2057354438e+00
1.2054486859e+00
1.2051727355e+00
1.2049302980e+00
1.2047333792e+00
1.2045848204e+00
1.2044801284e+00
1.2044111361e+00
1.2043684896e+00
1.2043437687e+00
1.2043303104e+00
1.2043234339e+00
1.2043201355e+00
1.2043186513e+00
1.2043180254e+00
1.2043177781e+00
1.2043176868e+00
1.2043176553e+00
1.2043176452e+00
1.2043176421e+00
1.2043176413e+00
1.2043176411e+00
1.2043176410e+00
1.2043176410e+00
1.2043176410e+00
1.2043176410e+00
1.2043176410e+00
1.2043176410e+00
1.2043176410e+00
1.2043176410e+00
1.2043176410e+00
1.2043176410e+00
1.2043176410e+00
1.2043176410e+00
1.2043176410e+00
1.2043176410e+00
1.2043176410e+00
1.2043176410e+00
1.2043176410e+00
1.2043176410e+00
1.2043176410e+00
1.2043176410e+00
1.2043176410e+00
1.2043176410e+00
1.2043176410e+00
1.2043176410e+00
1.2043176410e+00
1.2043176410e+00
1.2043176410e+00
1.2043176410e+00
1.2043176410e+00
1.2043176410e+00
1.2043176410e+00
1.2043176410e+00
1.2043176410e+00
1.2043176410e+00
1.2043176410e+00
1.2043176410e+00
1.2043176410e+00
1.2043176410e+00
1.2043176410e+00
1.1838093268e+00
1.1846678854e+00
1.1856672750e+00
1.1870599552e+00
1.1887480622e+00
1.1906176844e+00
1.1925548521e+00
1.1944537619e+00
1.1962290869e+00
1.1978182373e+00
1.1991857649e+00
1.2003190646e+00
1.2012261620e+00
1.2019283837e+00
1.2024559321e+00
1.2028416574e+00
1.2031179615e+00
1.2033135674e+00
1.2034527157e+00
1.2035545303e+00
1.2036337866e+00
1.2037016801e+00
1.2037671989e+00
1.2038383036e+00
1.2039230917e+00
1.2040304078e+00
1.2041697365e+00
1.2043500402e+00
1.2045775670e+00
1.2048528656e+00
1.2051679713e+00
1.2055045518e+00
1.2058345598e+00
1.2061235136e+00
1.2063366190e+00
1.2064462353e+00
1.2064382501e+00
1.2063163215e+00
1.2061004591e+00
1.2058232882e+00
1.2055213509e+00
1.2052288027e+00
1.2049704147e+00
1.2047603107e+00
1.2046016064e+00
1.2044899518e+00
1.2044164586e+00
1.2043711861e+00
1.2043450245e+00
1.2043308503e+00
1.2043236438e+00
1.2043202081e+00
1.2043186728e+00
1.2043180301e+00
1.2043177785e+00
1.2043176864e+00
1.2043176550e+00
1.2043176450e+00
1.2043176421e+00
1.2043176413e+00
1.2043176411e+00
1.2043176410e+00
1.2043176410e+00
1.2043176410e+00
1.2043176410e+00
1.2043176410e+00
1.2043176410e+00
1.2043176410e+00
1.2043176410e+00
1.2043176410e+00
1.2043176410e+00
1.2043176410e+00
1.2043176410e+00
1.2043176410e+00
1.2043176410e+00
1.2043176410e+00
1.2043176410e+00
1.2043176410e+00
1.2043176410e+00
1.2043176410e+00
1.2043176410e+00
1.2043176410e+00
1.2043176410e+00
1.2043176410e+00
1.2043176410e+00
1.2043176410e+00
1.2043176410e+00
1.2043176410e+00
1.2043176410e+00
1.2043176410e+00
1.2043176410e+00
1.2043176410e+00
1.2043176410e+00
1.2043176410e+00
1.2043176410e+00
1.2043176410e+00
1.2043176410e+00
1.2043176410e+00
1.2043176410e+00
1.2043176410e+00
1.1862266234e+00
1.1870293694e+00
1.1879105931e+00
1.1891357980e+00
1.1906176844e+00
1.1922579678e+00
1.1939552695e+00
1.1956186610e+00
1.1971721318e+00
1.1985624702e+00
1.1997577294e+00
1.2007481041e+00
1.2015400095e+00
1.2021528952e+00
1.2026127361e+00
1.2029486449e+00
1.2031885511e+00
1.2033576223e+00
1.2034766359e+00
1.2035621806e+00
1.2036268667e+00
1.2036805176e+00
1.2037312507e+00
1.2037869181e+00
1.2038561680e+00
1.2039491570e+00
1.2040772610e+00
1.2042517139e+00
1.2044808614e+00
1.2047667777e+00
1.2051016417e+00
1.2054658726e+00
1.2058283644e+00
1.2061506029e+00
1.2063933242e+00
1.2065249465e+00
1.2065292644e+00
1.2064091203e+00
1.2061865558e+00
1.2058962746e+00
1.2055787631e+00
1.2052703333e+00
1.2049984180e+00
1.2047775899e+00
1.2046114942e+00
1.2044950331e+00
1.2044188181e+00
1.2043721067e+00
1.2043453024e+00
1.2043308782e+00
1.2043236046e+00
1.2043201669e+00
1.2043186454e+00
1.2043180154e+00
1.2043177715e+00
1.2043176835e+00
1.2043176539e+00
1.2043176446e+00
1.2043176419e+00
1.2043176412e+00
1.2043176411e+00
1.2043176410e+00
1.2043176410e+00
1.2043176410e+00
1.2043176410e+00
1.2043176410e+00
1.2043176410e+00
1.2043176410e+00
1.2043176410e+00
1.2043176410e+00
1.2043176410e+00
1.2043176410e+00
1.2043176410e+00
1.2043176410e+00
1.2043176410e+00
1.2043176410e+00
1.2043176410e+00
1.2043176410e+00
1.2043176410e+00
1.2043176410e+00
1.2043176410e+00
1.2043176410e+00
1.2043176410e+00
1.2043176410e+00
1.2043176410e+00
1.2043176410e+00
1.2043176410e+00
1.2043176410e+00
1.2043176410e+00
1.2043176410e+00
1.2043176410e+00
1.2043176410e+00
1.2043176410e+00
1.2043176410e+00
1.2043176410e+00
1.2043176410e+00
1.2043176410e+00
1.2043176410e+00
1.2043176410e+00
1.2043176410e+00
1.1887393826e+00
1.1894807146e+00
1.1902382670e+00
1.1912874006e+00
1.1925548521e+00
1.1939552695e+00
1.1954038262e+00
1.1968215858e+00
1.1981454002e+00
1.1993288340e+00
1.2003460501e+00
1.2011879556e+00
1.2018609954e+00
1.2023812195e+00
1.2027712978e+00
1.2030555863e+00
1.2032580403e+00
1.2033996507e+00
1.2034980281e+00
1.2035669086e+00
1.2036169768e+00
1.2036566112e+00
1.2036933194e+00
1.2037349452e+00
1.2037909356e+00
1.2038728309e+00
1.2039939395e+00
1.2041674538e+00
1.2044034466e+00
1.2047046092e+00
1.2050626420e+00
1.2054556180e+00
1.2058491196e+00
1.2062002853e+00
1.2064659082e+00
1.2066115824e+00
1.2066197346e+00
1.2064944616e+00
1.2062595787e+00
1.2059537287e+00
1.2056197224e+00
1.2052970529e+00
1.2050137494e+00
1.2047852748e+00
1.2046143853e+00
1.2044955237e+00
1.2044182754e+00
1.2043713576e+00
1.2043446613e+00
1.2043304404e+00
1.2043233427e+00
1.2043200265e+00
1.2043185770e+00
1.2043179847e+00
1.2043177589e+00
1.2043176787e+00
1.2043176522e+00
1.2043176441e+00
1.2043176418e+00
1.2043176412e+00
1.2043176410e+00
1.2043176410e+00
1.2043176410e+00
1.2043176410e+00
1.2043176410e+00
1.2043176410e+00
1.2043176410e+00
1.2043176410e+00
1.2043176410e+00
1.2043176410e+00
1.2043176410e+00
1.2043176410e+00
1.2043176410e+00
1.2043176410e+00
1.2043176410e+00
1.2043176410e+00
1.2043176410e+00
1.2043176410e+00
1.2043176410e+00
1.2043176410e+00
1.2043176410e+00
1.2043176410e+00
1.2043176410e+00
1.2043176410e+00
1.2043176410e+00
1.2043176410e+00
1.2043176410e+00
1.2043176410e+00
1.2043176410e+00
1.2043176410e+00
1.2043176410e+00
1.2043176410e+00
1.2043176410e+00
1.2043176410e+00
1.2043176410e+00
1.2043176410e+00
1.2043176410e+00
1.2043176410e+00
1.2043176410e+00
1.2043176410e+00
1.1912093832e+00
1.1918885100e+00
1.1925228807e+00
1.1933986735e+00
1.1944537619e+00
1.1956186610e+00
1.1968215858e+00
1.1979985867e+00
1.1990960988e+00
1.2000770319e+00
1.2009191086e+00
1.2016158944e+00
1.2021721466e+00
1.2026018687e+00
1.2029233901e+00
1.2031571994e+00
1.2033227016e+00
1.2034372861e+00
1.2035151086e+00
1.2035674579e+00
1.2036030141e+00
1.2036290705e+00
1.2036526182e+00
1.2036818505e+00
1.2037271501e+00
1.2038016680e+00
1.2039204934e+00
1.2040986220e+00
1.2043470559e+00
1.2046685475e+00
1.2050530034e+00
1.2054757242e+00
1.2058980301e+00
1.2062730796e+00
1.2065541436e+00
1.2067049701e+00
1.2067084613e+00
1.2065703413e+00
1.2063183948e+00
1.2059940043e+00
1.2056438095e+00
1.2053082230e+00
1.2050165972e+00
1.2047833126e+00
1.2046106419e+00
1.2044916019e+00
1.2044150902e+00
1.2043690855e+00
1.2043432212e+00
1.2043296045e+00
1.2043228979e+00
1.2043198079e+00
1.2043184773e+00
1.2043179428e+00
1.2043177425e+00
1.2043176728e+00
1.2043176502e+00
1.2043176435e+00
1.2043176416e+00
1.2043176411e+00
1.2043176410e+00
1.2043176410e+00
1.2043176410e+00
1.2043176410e+00
1.2043176410e+00
1.2043176410e+00
1.2043176410e+00
1.2043176410e+00
1.2043176410e+00
1.2043176410e+00
1.2043176410e+00
1.2043176410e+00
1.2043176410e+00
1.2043176410e+00
1.2043176410e+00
1.2043176410e+00
1.2043176410e+00
1.2043176410e+00
1.2043176410e+00
1.2043176410e+00
1.2043176410e+00
1.2043176410e+00
1.2043176410e+00
1.2043176410e+00
1.2043176410e+00
1.2043176410e+00
1.2043176410e+00
1.2043176410e+00
1.2043176410e+00
1.2043176410e+00
1.2043176410e+00
1.2043176410e+00
1.2043176410e+00
1.2043176410e+00
1.2043176410e+00
1.2043176410e+00
1.2043176410e+00
1.2043176410e+00
1.2043176410e+00
1.2043176410e+00
1.1935237477e+00
1.1941422604e+00
1.1946609118e+00
1.1953729013e+00
1.1962290869e+00
1.1971721318e+00
1.1981454002e+00
1.1990960988e+00
1.1999823333e+00
1.2007732533e+00
1.2014520206e+00
1.2020127968e+00
1.2024602196e+00
1.2028050982e+00
1.2030626341e+00
1.2032488991e+00
1.2033796199e+00
1.2034683548e+00
1.2035264188e+00
1.2035626037e+00
1.2035840688e+00
1.2035971187e+00
1.2036086816e+00
1.2036274754e+00
1.2036651916e+00
1.2037365784e+00
1.2038585596e+00
1.2040473115e+00
1.2043143434e+00
1.2046611184e+00
1.2050752207e+00
1.2055277667e+00
1.2059759605e+00
1.2063686714e+00
1.2066567003e+00
1.2068033089e+00
1.2067928190e+00
1.2066348756e+00
1.2063606610e+00
1.2060162434e+00
1.2056498966e+00
1.2053040398e+00
1.2050068846e+00
1.2047723109e+00
1.2046005921e+00
1.2044837628e+00
1.2044095504e+00
1.2043655419e+00
1.2043411245e+00
1.2043284606e+00
1.2043223183e+00
1.2043195350e+00
1.2043183582e+00
1.2043178942e+00
1.2043177242e+00
1.2043176664e+00
1.2043176482e+00
1.2043176429e+00
1.2043176414e+00
1.2043176411e+00
1.2043176410e+00
1.2043176410e+00
1.2043176410e+00
1.2043176410e+00
1.2043176410e+00
1.2043176410e+00
1.2043176410e+00
1.2043176410e+00
1.2043176410e+00
1.2043176410e+00
1.2043176410e+00
1.2043176410e+00
1.2043176410e+00
1.2043176410e+00
1.2043176410e+00
1.2043176410e+00
1.2043176410e+00
1.2043176410e+00
1.2043176410e+00
1.2043176410e+00
1.2043176410e+00
1.2043176410e+00
1.2043176410e+00
1.2043176410e+00
1.2043176410e+00
1.2043176410e+00
1.2043176410e+00
1.2043176410e+00
1.2043176410e+00
1.2043176410e+00
1.2043176410e+00
1.2043176410e+00
1.2043176410e+00
1.2043176410e+00
1.2043176410e+00
1.2043176410e+00
1.2043176410e+00
1.2043176410e+00
1.2043176410e+00
1.2043176410e+00
1.1956007013e+00
1.1961630807e+00
1.1965767614e+00
1.1971416670e+00
1.1978182373e+00
1.1985624702e+00
1.1993288340e+00
1.2000770319e+00
1.2007732533e+00
1.2013943523e+00
1.2019264260e+00
1.2023657244e+00
1.2027153793e+00
1.2029843738e+00
1.2031841847e+00
1.2033275816e+00
1.2034264308e+00
1.2034912914e+00
1.2035306393e+00
1.2035514001e+00
1.2035593294e+00
1.2035602940e+00
1.2035613597e+00
1.2035722590e+00
1.2036060836e+00
1.2036794167e+00
1.2038105813e+00
1.2040166818e+00
1.2043084727e+00
1.2046855719e+00
1.2051315552e+00
1.2056132720e+00
1.2060828475e+00
1.2064858368e+00
1.2067712945e+00
1.2069033768e+00
1.2068699687e+00
1.2066848042e+00
1.2063847309e+00
1.2060186539e+00
1.2056379551e+00
1.2052842555e+00
1.2049854352e+00
1.2047527461e+00
1.2045850449e+00
1.2044724932e+00
1.2044021167e+00
1.2043609921e+00
1.2043385526e+00
1.2043271069e+00
1.2043216559e+00
1.2043192337e+00
1.2043182304e+00
1.2043178441e+00
1.2043177059e+00
1.2043176602e+00
1.2043176462e+00
1.2043176423e+00
1.2043176413e+00
1.2043176411e+00
1.2043176410e+00
1.2043176410e+00
1.2043176410e+00
1.2043176410e+00
1.2043176410e+00
1.2043176410e+00
1.2043176410e+00
1.2043176410e+00
1.2043176410e+00
1.2043176410e+00
1.2043176410e+00
1.2043176410e+00
1.2043176410e+00
1.2043176410e+00
1.2043176410e+00
1.2043176410e+00
1.2043176410e+00
1.2043176410e+00
1.2043176410e+00
1.2043176410e+00
1.2043176410e+00
1.2043176410e+00
1.2043176410e+00
1.2043176410e+00
1.2043176410e+00
1.2043176410e+00
1.2043176410e+00
1.2043176410e+00
1.2043176410e+00
1.2043176410e+00
1.2043176410e+00
1.2043176410e+00
1.2043176410e+00
1.2043176410e+00
1.2043176410e+00
1.2043176410e+00
1.2043176410e+00
1.2043176410e+00
1.2043176410e+00
1.2043176410e+00
1.1973925166e+00
1.1979039998e+00
1.1982269253e+00
1.1986640056e+00
1.1991857649e+00
1.1997577294e+00
1.2003460501e+00
1.2009191086e+00
1.2014520206e+00
1.2019264260e+00
1.2023325024e+00
1.2026668666e+00
1.2029324447e+00
1.2031356460e+00
1.2032854539e+00
1.2033911470e+00
1.2034617400e+00
1.2035048401e+00
1.2035268650e+00
1.2035330245e+00
1.2035283238e+00
1.2035184153e+00
1.2035110909e+00
1.2035172648e+00
1.2035518211e+00
1.2036329134e+00
1.2037801897e+00
1.2040105759e+00
1.2043335521e+00
1.2047450897e+00
1.2052244733e+00
1.2057328017e+00
1.2062179092e+00
1.2066220794e+00
1.2068942705e+00
1.2070013204e+00
1.2069355985e+00
1.2067173526e+00
1.2063878453e+00
1.2060006518e+00
1.2056073384e+00
1.2052497914e+00
1.2049528204e+00
1.2047257962e+00
1.2045647381e+00
1.2044585572e+00
1.2043932389e+00
1.2043557681e+00
1.2043356873e+00
1.2043256466e+00
1.2043209630e+00
1.2043189275e+00
1.2043181050e+00
1.2043177962e+00
1.2043176891e+00
1.2043176547e+00
1.2043176446e+00
1.2043176419e+00
1.2043176412e+00
1.2043176410e+00
1.2043176410e+00
1.2043176410e+00
1.2043176410e+00
1.2043176410e+00
1.2043176410e+00
1.2043176410e+00
1.2043176410e+00
1.2043176410e+00
1.2043176410e+00
1.2043176410e+00
1.2043176410e+00
1.2043176410e+00
1.2043176410e+00
1.2043176410e+00
1.2043176410e+00
1.2043176410e+00
1.2043176410e+00
1.2043176410e+00
1.2043176410e+00
1.2043176410e+00
1.2043176410e+00
1.2043176410e+00
1.2043176410e+00
1.2043176410e+00
1.2043176410e+00
1.2043176410e+00
1.2043176410e+00
1.2043176410e+00
1.2043176410e+00
1.2043176410e+00
1.2043176410e+00
1.2043176410e+00
1.2043176410e+00
1.2043176410e+00
1.2043176410e+00
1.2043176410e+00
1.2043176410e+00
1.2043176410e+00
1.2043176410e+00
1.2043176410e+00
1.1988823777e+00
1.1993492219e+00
1.1995958989e+00
1.1999266895e+00
1.2003190646e+00
1.2007481041e+00
1.2011879556e+00
1.2016158944e+00
1.2020127968e+00
1.2023657244e+00
1.2026668666e+00
1.2029142301e+00
1.2031095462e+00
1.2032578311e+00
1.2033652990e+00
1.2034388331e+00
1.2034846533e+00
1.2035083168e+00
1.2035143644e+00
1.2035070414e+00
1.2034908493e+00
1.2034719002e+00
1.2034589341e+00
1.2034645651e+00
1.2035053485e+00
1.2036011040e+00
1.2037718791e+00
1.2040339826e+00
1.2043938207e+00
1.2048432822e+00
1.2053554998e+00
1.2058863593e+00
1.2063788002e+00
1.2067735803e+00
1.2070208581e+00
1.2070917545e+00
1.2069855384e+00
1.2067285106e+00
1.2063684732e+00
1.2059608973e+00
1.2055588469e+00
1.2052011958e+00
1.2049105959e+00
1.2046924826e+00
1.2045408391e+00
1.2044426598e+00
1.2043834783e+00
1.2043501816e+00
1.2043327180e+00
1.2043241762e+00
1.2043202853e+00
1.2043186375e+00
1.2043179895e+00
1.2043177539e+00
1.2043176746e+00
1.2043176502e+00
1.2043176433e+00
1.2043176415e+00
1.2043176411e+00
1.2043176410e+00
1.2043176410e+00
1.2043176410e+00
1.2043176410e+00
1.2043176410e+00
1.2043176410e+00
1.2043176410e+00
1.2043176410e+00
1.2043176410e+00
1.2043176410e+00
1.2043176410e+00
1.2043176410e+00
1.2043176410e+00