# vtk DataFile Version 2.0
Blank
ASCII
DATASET STRUCTURED_GRID
DIMENSIONS 101 101 2
POINTS 20402 float
0.0000000000e+00 0.0000000000e+00 0.0000000000e+00
1.0000000000e-02 0.0000000000e+00 0.0000000000e+00
2.0000000000e-02 0.0000000000e+00 0.0000000000e+00
3.0000000000e-02 0.0000000000e+00 0.0000000000e+00
4.0000000000e-02 0.0000000000e+00 0.0000000000e+00
5.0000000000e-02 0.0000000000e+00 0.0000000000e+00
6.0000000000e-02 0.0000000000e+00 0.0000000000e+00
7.0000000000e-02 0.0000000000e+00 0.0000000000e+00
8.0000000000e-02 0.0000000000e+00 0.0000000000e+00
9.0000000000e-02 0.0000000000e+00 0.0000000000e+00
1.0000000000e-01 0.0000000000e+00 0.0000000000e+00
1.1000000000e-01 0.0000000000e+00 0.0000000000e+00
1.2000000000e-01 0.0000000000e+00 0.0000000000e+00
1.3000000000e-01 0.0000000000e+00 0.0000000000e+00
1.4000000000e-01 0.0000000000e+00 0.0000000000e+00
1.5000000000e-01 0.0000000000e+00 0.0000000000e+00
1.6000000000e-01 0.0000000000e+00 0.0000000000e+00
1.7000000000e-01 0.0000000000e+00 0.0000000000e+00
1.8000000000e-01 0.0000000000e+00 0.0000000000e+00
1.9000000000e-01 0.0000000000e+00 0.0000000000e+00
2.0000000000e-01 0.0000000000e+00 0.0000000000e+00
2.1000000000e-01 0.0000000000e+00 0.0000000000e+00
2.2000000000e-01 0.0000000000e+00 0.0000000000e+00
2.3000000000e-01 0.0000000000e+00 0.0000000000e+00
2.4000000000e-01 0.0000000000e+00 0.0000000000e+00
2.5000000000e-01 0.0000000000e+00 0.0000000000e+00
2.6000000000e-01 0.0000000000e+00 0.0000000000e+00
2.7000000000e-01 0.0000000000e+00 0.0000000000e+00
2.8000000000e-01 0.0000000000e+00 0.0000000000e+00
2.9000000000e-01 0.0000000000e+00 0.0000000000e+00
3.0000000000e-01 0.0000000000e+00 0.0000000000e+00
3.1000000000e-01 0.0000000000e+00 0.0000000000e+00
3.2000000000e-01 0.0000000000e+00 0.0000000000e+00
3.3000000000e-01 0.0000000000e+00 0.0000000000e+00
3.4000000000e-01 0.0000000000e+00 0.0000000000e+00
3.5000000000e-01 0.0000000000e+00 0.0000000000e+00
3.6000000000e-01 0.0000000000e+00 0.0000000000e+00
3.7000000000e-01 0.0000000000e+00 0.0000000000e+00
3.8000000000e-01 0.0000000000e+00 0.0000000000e+00
3.9000000000e-01 0.0000000000e+00 0.0000000000e+00
4.0000000000e-01 0.0000000000e+00 0.0000000000e+00
4.1000000000e-01 0.0000000000e+00 0.0000000000e+00
4.2000000000e-01 0.0000000000e+00 0.0000000000e+00
4.3000000000e-01 0.0000000000e+00 0.0000000000e+00
4.4000000000e-01 0.0000000000e+00 0.0000000000e+00
4.5000000000e-01 0.0000000000e+00 0.0000000000e+00
4.6000000000e-01 0.0000000000e+00 0.0000000000e+00
4.7000000000e-01 0.0000000000e+00 0.0000000000e+00
4.8000000000e-01 0.0000000000e+00 0.0000000000e+00
4.9000000000e-01 0.0000000000e+00 0.0000000000e+00
5.0000000000e-01 0.0000000000e+00 0.0000000000e+00
5.1000000000e-01 0.0000000000e+00 0.0000000000e+00
5.2000000000e-01 0.0000000000e+00 0.0000000000e+00
5.3000000000e-01 0.0000000000e+00 0.0000000000e+00
5.4000000000e-01 0.0000000000e+00 0.0000000000e+00
5.5000000000e-01 0.0000000000e+00 0.0000000000e+00
5.6000000000e-01 0.0000000000e+00 0.0000000000e+00
5.7000000000e-01 0.0000000000e+00 0.0000000000e+00
5.8000000000e-01 0.0000000000e+00 0.0000000000e+00
5.9000000000e-01 0.0000000000e+00 0.0000000000e+00
6.0000000000e-01 0.0000000000e+00 0.0000000000e+00
6.1000000000e-01 0.0000000000e+00 0.0000000000e+00
6.2000000000e-01 0.0000000000e+00 0.0000000000e+00
6.3000000000e-01 0.0000000000e+00 0.0000000000e+00
6.4000000000e-01 0.0000000000e+00 0.0000000000e+00
6.5000000000e-01 0.0000000000e+00 0.0000000000e+00
6.6000000000e-01 0.0000000000e+00 0.0000000000e+00
6.7000000000e-01 0.0000000000e+00 0.0000000000e+00
6.8000000000e-01 0.0000000000e+00 0.0000000000e+00
6.9000000000e-01 0.0000000000e+00 0.0000000000e+00
7.0000000000e-01 0.0000000000e+00 0.0000000000e+00
7.1000000000e-01 0.0000000000e+00 0.0000000000e+00
7.2000000000e-01 0.0000000000e+00 0.0000000000e+00
7.3000000000e-01 0.0000000000e+00 0.0000000000e+00
7.4000000000e-01 0.0000000000e+00 0.0000000000e+00
7.5000000000e-01 0.0000000000e+00 0.0000000000e+00
7.6000000000e-01 0.0000000000e+00 0.0000000000e+00
7.7000000000e-01 0.0000000000e+00 0.0000000000e+00
7.8000000000e-01 0.0000000000e+00 0.0000000000e+00
7.9000000000e-01 0.0000000000e+00 0.0000000000e+00
8.0000000000e-01 0.0000000000e+00 0.0000000000e+00
8.1000000000e-01 0.0000000000e+00 0.0000000000e+00
8.2000000000e-01 0.0000000000e+00 0.0000000000e+00
8.3000000000e-01 0.0000000000e+00 0.0000000000e+00
8.4000000000e-01 0.0000000000e+00 0.0000000000e+00
8.5000000000e-01 0.0000000000e+00 0.0000000000e+00
8.6000000000e-01 0.0000000000e+00 0.0000000000e+00
8.7000000000e-01 0.0000000000e+00 0.0000000000e+00
8.8000000000e-01 0.0000000000e+00 0.0000000000e+00
8.9000000000e-01 0.0000000000e+00 0.0000000000e+00
9.0000000000e-01 0.0000000000e+00 0.0000000000e+00
9.1000000000e-01 0.0000000000e+00 0.0000000000e+00
9.2000000000e-01 0.0000000000e+00 0.0000000000e+00
9.3000000000e-01 0.0000000000e+00 0.0000000000e+00
9.4000000000e-01 0.0000000000e+00 0.0000000000e+00
9.5000000000e-01 0.0000000000e+00 0.0000000000e+00
9.6000000000e-01 0.0000000000e+00 0.0000000000e+00
9.7000000000e-01 0.0000000000e+00 0.0000000000e+00
9.8000000000e-01 0.0000000000e+00 0.0000000000e+00
9.9000000000e-01 0.0000000000e+00 0.0000000000e+00
1.0000000000e+00 0.0000000000e+00 0.0000000000e+00
0.0000000000e+00 1.0000000000e-02 0.0000000000e+00
1.0000000000e-02 1.0000000000e-02 0.0000000000e+00
2.0000000000e-02 1.0000000000e-02 0.0000000000e+00
3.0000000000e-02 1.0000000000e-02 0.0000000000e+00
4.0000000000e-02 1.0000000000e-02 0.0000000000e+00
5.0000000000e-02 1.0000000000e-02 0.0000000000e+00
6.0000000000e-02 1.0000000000e-02 0.0000000000e+00
7.0000000000e-02 1.0000000000e-02 0.0000000000e+00
8.0000000000e-02 1.0000000000e-02 0.0000000000e+00
9.0000000000e-02 1.0000000000e-02 0.0000000000e+00
1.0000000000e-01 1.0000000000e-02 0.0000000000e+00
1.1000000000e-01 1.0000000000e-02 0.0000000000e+00
1.2000000000e-01 1.0000000000e-02 0.0000000000e+00
1.3000000000e-01 1.0000000000e-02 0.0000000000e+00
1.4000000000e-01 1.0000000000e-02 0.0000000000e+00
1.5000000000e-01 1.0000000000e-02 0.0000000000e+00
1.6000000000e-01 1.0000000000e-02 0.0000000000e+00
1.7000000000e-01 1.0000000000e-02 0.0000000000e+00
1.8000000000e-01 1.0000000000e-02 0.0000000000e+00
1.9000000000e-01 1.0000000000e-02 0.0000000000e+00
2.0000000000e-01 1.0000000000e-02 0.0000000000e+00
2.1000000000e-01 1.0000000000e-02 0.0000000000e+00
2.2000000000e-01 1.0000000000e-02 0.0000000000e+00
2.3000000000e-01 1.0000000000e-02 0.0000000000e+00
2.4000000000e-01 1.0000000000e-02 0.0000000000e+00
2.5000000000e-01 1.0000000000e-02 0.0000000000e+00
2.6000000000e-01 1.0000000000e-02 0.0000000000e+00
2.7000000000e-01 1.0000000000e-02 0.0000000000e+00
2.8000000000e-01 1.0000000000e-02 0.0000000000e+00
2.9000000000e-01 1.0000000000e-02 0.0000000000e+00
3.0000000000e-01 1.0000000000e-02 0.0000000000e+00
3.1000000000e-01 1.0000000000e-02 0.0000000000e+00
3.2000000000e-01 1.0000000000e-02 0.0000000000e+00
3.3000000000e-01 1.0000000000e-02 0.0000000000e+00
3.4000000000e-01 1.0000000000e-02 0.0000000000e+00
3.5000000000e-01 1.0000000000e-02 0.0000000000e+00
3.6000000000e-01 1.0000000000e-02 0.0000000000e+00
3.7000000000e-01 1.0000000000e-02 0.0000000000e+00
3.8000000000e-01 1.0000000000e-02 0.0000000000e+00
3.9000000000e-01 1.0000000000e-02 0.0000000000e+00
4.0000000000e-01 1.0000000000e-02 0.0000000000e+00
4.1000000000e-01 1.0000000000e-02 0.0000000000e+00
4.2000000000e-01 1.0000000000e-02 0.0000000000e+00
4.3000000000e-01 1.0000000000e-02 0.0000000000e+00
4.4000000000e-01 1.0000000000e-02 0.0000000000e+00
4.5000000000e-01 1.0000000000e-02 0.0000000000e+00
4.6000000000e-01 1.0000000000e-02 0.0000000000e+00
4.7000000000e-01 1.0000000000e-02 0.0000000000e+00
4.8000000000e-01 1.0000000000e-02 0.0000000000e+00
4.9000000000e-01 1.0000000000e-02 0.0000000000e+00
5.0000000000e-01 1.0000000000e-02 0.0000000000e+00
5.1000000000e-01 1.0000000000e-02 0.0000000000e+00
5.2000000000e-01 1.0000000000e-02 0.0000000000e+00
5.3000000000e-01 1.0000000000e-02 0.0000000000e+00
5.4000000000e-01 1.0000000000e-02 0.0000000000e+00
5.5000000000e-01 1.0000000000e-02 0.0000000000e+00
5.6000000000e-01 1.0000000000e-02 0.0000000000e+00
5.7000000000e-01 1.0000000000e-02 0.0000000000e+00
5.8000000000e-01 1.0000000000e-02 0.0000000000e+00
5.9000000000e-01 1.0000000000e-02 0.0000000000e+00
6.0000000000e-01 1.0000000000e-02 0.0000000000e+00
6.1000000000e-01 1.0000000000e-02 0.0000000000e+00
6.2000000000e-01 1.0000000000e-02 0.0000000000e+00
6.3000000000e-01 1.0000000000e-02 0.0000000000e+00
6.4000000000e-01 1.0000000000e-02 0.0000000000e+00
6.5000000000e-01 1.0000000000e-02 0.0000000000e+00
6.6000000000e-01 1.0000000000e-02 0.0000000000e+00
6.7000000000e-01 1.0000000000e-02 0.0000000000e+00
6.8000000000e-01 1.0000000000e-02 0.0000000000e+00
6.9000000000e-01 1.0000000000e-02 0.0000000000e+00
7.0000000000e-01 1.0000000000e-02 0.0000000000e+00
7.1000000000e-01 1.0000000000e-02 0.0000000000e+00
7.2000000000e-01 1.0000000000e-02 0.0000000000e+00
7.3000000000e-01 1.0000000000e-02 0.0000000000e+00
7.4000000000e-01 1.0000000000e-02 0.0000000000e+00
7.5000000000e-01 1.0000000000e-02 0.0000000000e+00
7.6000000000e-01 1.0000000000e-02 0.0000000000e+00
7.7000000000e-01 1.0000000000e-02 0.0000000000e+00
7.8000000000e-01 1.0000000000e-02 0.0000000000e+00
7.9000000000e-01 1.0000000000e-02 0.0000000000e+00
8.0000000000e-01 1.0000000000e-02 0.0000000000e+00
8.1000000000e-01 1.0000000000e-02 0.0000000000e+00
8.2000000000e-01 1.0000000000e-02 0.0000000000e+00
8.3000000000e-01 1.0000000000e-02 0.0000000000e+00
8.4000000000e-01 1.0000000000e-02 0.0000000000e+00
8.5000000000e-01 1.0000000000e-02 0.0000000000e+00
8.6000000000e-01 1.0000000000e-02 0.0000000000e+00
8.7000000000e-01 1.0000000000e-02 0.0000000000e+00
8.8000000000e-01 1.0000000000e-02 0.0000000000e+00
8.9000000000e-01 1.0000000000e-02 0.0000000000e+00
9.0000000000e-01 1.0000000000e-02 0.0000000000e+00
9.1000000000e-01 1.0000000000e-02 0.0000000000e+00
9.2000000000e-01 1.0000000000e-02 0.0000000000e+00
[...]
CELL_DATA 10000

SCALARS massDensity float
LOOKUP_TABLE default
1.2014225391e+00
1.2014339828e+00
1.2014505281e+00
1.2014758500e+00
1.2015096708e+00
1.2015516445e+00
1.2016013649e+00
1.2016583696e+00
1.2017221453e+00
1.2017921330e+00
1.2018677351e+00
1.2019483222e+00
1.2020332415e+00
1.2021218244e+00
1.2022133957e+00
1.2023072805e+00
1.2024028133e+00
1.2024993443e+00
1.2025962473e+00
1.2026929250e+00
1.2027888153e+00
1.2028833953e+00
1.2029761856e+00
1.2030667531e+00
1.2031547130e+00
1.2032397301e+00
1.2033215197e+00
1.2033998463e+00
1.2034745235e+00
1.2035454117e+00
1.2036124163e+00
1.2036754846e+00
1.2037346034e+00
1.2037897946e+00
1.2038411126e+00
1.2038886402e+00
1.2039324847e+00
1.2039727746e+00
1.2040096554e+00
1.2040432867e+00
1.2040738385e+00
1.2041014882e+00
1.2041264178e+00
1.2041488111e+00
1.2041688520e+00
1.2041867217e+00
1.2042025977e+00
1.2042166519e+00
1.2042290495e+00
1.2042399481e+00
1.2042494973e+00
1.2042578377e+00
1.2042651008e+00
1.2042714090e+00
1.2042768755e+00
1.2042816041e+00
1.2042856901e+00
1.2042892200e+00
1.2042922718e+00
1.2042949160e+00
1.2042972154e+00
1.2042992258e+00
1.2043009964e+00
1.2043025702e+00
1.2043039848e+00
1.2043052723e+00
1.2043064599e+00
1.2043075707e+00
1.2043086235e+00
1.2043096336e+00
1.2043106133e+00
1.2043115716e+00
1.2043125153e+00
1.2043134490e+00
1.2043143754e+00
1.2043152957e+00
1.2043162099e+00
1.2043171171e+00
1.2043180154e+00
1.2043189027e+00
1.2043197766e+00
1.2043206344e+00
1.2043214734e+00
1.2043222913e+00
1.2043230853e+00
1.2043238532e+00
1.2043245924e+00
1.2043253004e+00
1.2043259742e+00
1.2043266099e+00
1.2043272030e+00
1.2043277470e+00
1.2043282336e+00
1.2043286517e+00
1.2043289870e+00
1.2043292207e+00
1.2043293294e+00
1.2043292844e+00
1.2043290551e+00
1.2043316819e+00
1.2014339828e+00
1.2014462363e+00
1.2014631751e+00
1.2014887346e+00
1.2015226799e+00
1.2015646943e+00
1.2016143906e+00
1.2016713193e+00
1.2017349757e+00
1.2018048070e+00
1.2018802199e+00
1.2019605890e+00
1.2020452643e+00
1.2021335806e+00
1.2022248646e+00
1.2023184445e+00
1.2024136568e+00
1.2025098544e+00
1.2026064132e+00
1.2027027386e+00
1.2027982704e+00
1.2028924884e+00
1.2029849151e+00
1.2030751198e+00
1.2031627196e+00
1.2032473815e+00
1.2033288222e+00
1.2034068083e+00
1.2034811548e+00
1.2035517236e+00
1.2036184214e+00
1.2036811968e+00
1.2037400372e+00
1.2037949657e+00
1.2038460371e+00
1.2038933348e+00
1.2039369665e+00
1.2039770607e+00
1.2040137631e+00
1.2040472331e+00
1.2040776404e+00
1.2041051619e+00
1.2041299790e+00
1.2041522750e+00
1.2041722328e+00
1.2041900327e+00
1.2042058511e+00
1.2042198586e+00
1.2042322192e+00
1.2042430893e+00
1.2042526168e+00
1.2042609409e+00
1.2042681915e+00
1.2042744895e+00
1.2042799463e+00
1.2042846643e+00
1.2042887370e+00
1.2042922492e+00
1.2042952775e+00
1.2042978908e+00
1.2043001504e+00
1.2043021109e+00
1.2043038202e+00
1.2043053203e+00
1.2043066477e+00
1.2043078339e+00
1.2043089055e+00
1.2043098852e+00
1.2043107917e+00
1.2043116405e+00
1.2043124438e+00
1.2043132116e+00
1.2043139511e+00
1.2043146679e+00
1.2043153657e+00
1.2043160471e+00
1.2043167133e+00
1.2043173648e+00
1.2043180014e+00
1.2043186225e+00
1.2043192273e+00
1.2043198147e+00
1.2043203836e+00
1.2043209330e+00
1.2043214619e+00
1.2043219694e+00
1.2043224545e+00
1.2043229164e+00
1.2043233539e+00
1.2043237653e+00
1.2043241488e+00
1.2043245016e+00
1.2043248200e+00
1.2043250995e+00
1.2043253345e+00
1.2043255189e+00
1.2043256469e+00
1.2043257160e+00
1.2043257326e+00
1.2043288211e+00
1.2014505281e+00
1.2014631751e+00
1.2014801663e+00
1.2015056762e+00
1.2015394866e+00
1.2015812942e+00
1.2016307227e+00
1.2016873302e+00
1.2017506187e+00
1.2018200406e+00
1.2018950078e+00
1.2019748990e+00
1.2020590690e+00
1.2021468562e+00
1.2022375922e+00
1.2023306088e+00
1.2024252468e+00
1.2025208628e+00
1.2026168369e+00
1.2027125776e+00
1.2028075288e+00
1.2029011728e+00
1.2029930357e+00
1.2030826891e+00
1.2031697529e+00
1.2032538959e+00
1.2033348371e+00
1.2034123444e+00
1.2034862342e+00
1.2035563692e+00
1.2036226571e+00
1.2036850467e+00
1.2037435259e+00
1.2037981174e+00
1.2038488762e+00
1.2038958850e+00
1.2039392511e+00
1.2039791021e+00
1.2040155831e+00
1.2040488522e+00
1.2040790784e+00
1.2041064375e+00
1.2041311097e+00
1.2041532771e+00
1.2041731215e+00
1.2041908220e+00
1.2042065539e+00
1.2042204868e+00
1.2042327836e+00
1.2042435996e+00
1.2042530818e+00
1.2042613683e+00
1.2042685884e+00
1.2042748620e+00
1.2042802996e+00
1.2042850031e+00
1.2042890652e+00
1.2042925701e+00
1.2042955937e+00
1.2042982044e+00
1.2043004631e+00
1.2043024235e+00
1.2043041334e+00
1.2043056341e+00
1.2043069618e+00
1.2043081474e+00
1.2043092173e+00
1.2043101937e+00
1.2043110952e+00
1.2043119366e+00
1.2043127303e+00
1.2043134856e+00
1.2043142100e+00
1.2043149087e+00
1.2043155855e+00
1.2043162428e+00
1.2043168819e+00
1.2043175035e+00
1.2043181075e+00
1.2043186934e+00
1.2043192607e+00
1.2043198086e+00
1.2043203362e+00
1.2043208430e+00
1.2043213283e+00
1.2043217917e+00
1.2043222328e+00
1.2043226513e+00
1.2043230465e+00
1.2043234181e+00
1.2043237650e+00
1.2043240861e+00
1.2043243797e+00
1.2043246441e+00
1.2043248775e+00
1.2043250790e+00
1.2043252501e+00
1.2043253977e+00
1.2043255391e+00
1.2043288151e+00
1.2014758500e+00
1.2014887346e+00
1.2015056762e+00
1.2015310369e+00
1.2015646022e+00
1.2016060765e+00
1.2016550905e+00
1.2017112100e+00
1.2017739436e+00
1.2018427508e+00
1.2019170494e+00
1.2019962250e+00
1.2020796383e+00
1.2021666345e+00
1.2022565508e+00
1.2023487258e+00
1.2024425058e+00
1.2025372539e+00
1.2026323552e+00
1.2027272243e+00
1.2028213095e+00
1.2029140987e+00
1.2030051218e+00
1.2030939547e+00
1.2031802207e+00
1.2032635922e+00
1.2033437904e+00
1.2034205858e+00
1.2034937964e+00
1.2035632867e+00
1.2036289649e+00
1.2036907809e+00
1.2037487223e+00
1.2038028124e+00
1.2038531053e+00
1.2038996833e+00
1.2039426526e+00
1.2039821400e+00
1.2040182890e+00
1.2040512567e+00
1.2040812101e+00
1.2041083237e+00
1.2041327759e+00
1.2041547474e+00
1.2041744180e+00
1.2041919653e+00
1.2042075629e+00
1.2042213787e+00
1.2042335742e+00
1.2042443031e+00
1.2042537111e+00
1.2042619349e+00
1.2042691025e+00
1.2042753326e+00
1.2042807349e+00
1.2042854099e+00
1.2042894494e+00
1.2042929368e+00
1.2042959472e+00
1.2042985482e+00
1.2043007998e+00
1.2043027553e+00
1.2043044617e+00
1.2043059598e+00
1.2043072851e+00
1.2043084681e+00
1.2043095348e+00
1.2043105069e+00
1.2043114024e+00
1.2043122362e+00
1.2043130199e+00
1.2043137630e+00
1.2043144725e+00
1.2043151536e+00
1.2043158099e+00
1.2043164439e+00
1.2043170568e+00
1.2043176494e+00
1.2043182218e+00
1.2043187737e+00
1.2043193047e+00
1.2043198144e+00
1.2043203023e+00
1.2043207681e+00
1.2043212117e+00
1.2043216330e+00
1.2043220323e+00
1.2043224099e+00
1.2043227659e+00
1.2043231008e+00
1.2043234147e+00
1.2043237078e+00
1.2043239804e+00
1.2043242328e+00
1.2043244660e+00
1.2043246823e+00
1.2043248869e+00
1.2043250895e+00
1.2043253079e+00
1.2043286482e+00
1.2015096708e+00
1.2015226799e+00
1.2015394866e+00
1.2015646022e+00
1.2015978130e+00
1.2016388266e+00
1.2016872803e+00
1.2017427467e+00
1.2018047419e+00
1.2018727328e+00
1.2019461457e+00
1.2020243736e+00
1.2021067859e+00
1.2021927355e+00
1.2022815684e+00
1.2023726307e+00
1.2024652773e+00
1.2025588784e+00
1.2026528273e+00
1.2027465451e+00
1.2028394877e+00
1.2029311484e+00
1.2030210637e+00
1.2031088142e+00
1.2031940284e+00
1.2032763822e+00
1.2033556010e+00
1.2034314577e+00
1.2035037732e+00
1.2035724134e+00
1.2036372880e+00
1.2036983475e+00
1.2037555801e+00
1.2038090085e+00
1.2038586867e+00
1.2039046958e+00
1.2039471410e+00
1.2039861475e+00
1.2040218573e+00
1.2040544254e+00
1.2040840170e+00
1.2041108043e+00
1.2041349638e+00
1.2041566737e+00
1.2041761118e+00
1.2041934534e+00
1.2042088700e+00
1.2042225275e+00
1.2042345851e+00
1.2042451949e+00
1.2042545004e+00
1.2042626370e+00
1.2042697308e+00
1.2042758990e+00
1.2042812499e+00
1.2042858827e+00
1.2042898880e+00
1.2042933480e+00
1.2042963369e+00
1.2042989210e+00
1.2043011598e+00
1.2043031055e+00
1.2043048044e+00
1.2043062966e+00
1.2043076170e+00
1.2043087955e+00
1.2043098575e+00
1.2043108241e+00
1.2043117131e+00
1.2043125387e+00
1.2043133125e+00
1.2043140434e+00
1.2043147383e+00
1.2043154022e+00
1.2043160386e+00
1.2043166500e+00
1.2043172376e+00
1.2043178022e+00
1.2043183441e+00
1.2043188631e+00
1.2043193591e+00
1.2043198319e+00
1.2043202815e+00
1.2043207079e+00
1.2043211114e+00
1.2043214926e+00
1.2043218521e+00
1.2043221909e+00
1.2043225101e+00
1.2043228108e+00
1.2043230942e+00
1.2043233618e+00
1.2043236151e+00
1.2043238562e+00
1.2043240879e+00
1.2043243142e+00
1.2043245416e+00
1.2043247798e+00
1.2043250434e+00
1.2043283751e+00
1.2015516445e+00
1.2015646943e+00
1.2015812942e+00
1.2016060765e+00
1.2016388266e+00
1.2016792561e+00
1.2017270071e+00
1.2017816600e+00
1.2018427384e+00
1.2019097185e+00
1.2019820352e+00
1.2020590918e+00
1.2021402670e+00
1.2022249242e+00
1.2023124189e+00
1.2024021078e+00
1.2024933550e+00
1.2025855411e+00
1.2026780678e+00
1.2027703659e+00
1.2028618987e+00
1.2029521683e+00
1.2030407173e+00
1.2031271336e+00
1.2032110509e+00
1.2032921507e+00
1.2033701622e+00
1.2034448624e+00
1.2035160746e+00
1.2035836673e+00
1.2036475515e+00
1.2037076788e+00
1.2037640375e+00
1.2038166503e+00
1.2038655704e+00
1.2039108779e+00
1.2039526763e+00
1.2039910893e+00
1.2040262564e+00
1.2040583307e+00
1.2040874747e+00
1.2041138581e+00
1.2041376546e+00
1.2041590399e+00
1.2041781888e+00
1.2041952743e+00
1.2042104649e+00
1.2042239241e+00
1.2042358087e+00
1.2042462683e+00
1.2042554444e+00
1.2042634700e+00
1.2042704694e+00
1.2042765579e+00
1.2042818420e+00
1.2042864194e+00
1.2042903791e+00
1.2042938021e+00
1.2042967613e+00
1.2042993218e+00
1.2043015420e+00
1.2043034732e+00
1.2043051607e+00
1.2043066440e+00
1.2043079570e+00
1.2043091291e+00
1.2043101848e+00
1.2043111450e+00
1.2043120266e+00
1.2043128438e+00
1.2043136074e+00
1.2043143262e+00
1.2043150068e+00
1.2043156540e+00
1.2043162712e+00
1.2043168607e+00
1.2043174239e+00
1.2043179615e+00
1.2043184738e+00
1.2043189611e+00
1.2043194233e+00
1.2043198606e+00
1.2043202733e+00
1.2043206618e+00
1.2043210268e+00
1.2043213695e+00
1.2043216910e+00
1.2043219929e+00
1.2043222771e+00
1.2043225454e+00
1.2043228000e+00
1.2043230433e+00
1.2043232780e+00
1.2043235072e+00
1.2043237348e+00
1.2043239657e+00
1.2043242065e+00
1.2043244658e+00
1.2043247548e+00
1.2043280353e+00
1.2016013649e+00
1.2016143906e+00
1.2016307227e+00
1.2016550905e+00
1.2016872803e+00
1.2017270071e+00
1.2017739195e+00
1.2018276047e+00
1.2018875959e+00
1.2019533784e+00
1.2020243984e+00
1.2021000696e+00
1.2021797829e+00
1.2022629125e+00
1.2023488267e+00
1.2024368931e+00
1.2025264882e+00
1.2026170030e+00
1.2027078512e+00
1.2027984729e+00
1.2028883423e+00
1.2029769695e+00
1.2030639067e+00
1.2031487485e+00
1.2032311361e+00
1.2033107562e+00
1.2033873438e+00
1.2034606795e+00
1.2035305906e+00
1.2035969476e+00
1.2036596637e+00
1.2037186912e+00
1.2037740192e+00
1.2038256697e+00
1.2038736953e+00
1.2039181746e+00
1.2039592097e+00
1.2039969216e+00
1.2040314478e+00
1.2040629383e+00
1.2040915531e+00
1.2041174585e+00
1.2041408253e+00
1.2041618257e+00
1.2041806317e+00
1.2041974128e+00
1.2042123346e+00
1.2042255576e+00
1.2042372356e+00
1.2042475155e+00
1.2042565362e+00
1.2042644282e+00
1.2042713134e+00
1.2042773051e+00
1.2042825077e+00
1.2042870170e+00
1.2042909205e+00
1.2042942972e+00
1.2042972188e+00
1.2042997492e+00
1.2043019453e+00
1.2043038575e+00
1.2043055300e+00
1.2043070012e+00
1.2043083045e+00
1.2043094682e+00
1.2043105163e+00
1.2043114690e+00
1.2043123427e+00
1.2043131509e+00
1.2043139043e+00
1.2043146112e+00
1.2043152778e+00
1.2043159088e+00
1.2043165074e+00
1.2043170757e+00
1.2043176152e+00
1.2043181267e+00
1.2043186106e+00
1.2043190673e+00
1.2043194969e+00
1.2043199000e+00
1.2043202770e+00
1.2043206290e+00
1.2043209570e+00
1.2043212626e+00
1.2043215476e+00
1.2043218141e+00
1.2043220647e+00
1.2043223019e+00
1.2043225287e+00
1.2043227483e+00
1.2043229642e+00
1.2043231802e+00
1.2043234010e+00
1.2043236316e+00
1.2043238783e+00
1.2043241485e+00
1.2043244503e+00
1.2043276550e+00
1.2016583696e+00
1.2016713193e+00
1.2016873302e+00
1.2017112100e+00
1.2017427467e+00
1.2017816600e+00
1.2018276047e+00
1.2018801769e+00
1.2019389191e+00
1.2020033282e+00
1.2020728613e+00
1.2021469456e+00
1.2022249840e+00
1.2023063651e+00
1.2023904695e+00
1.2024766791e+00
1.2025643830e+00
1.2026529860e+00
1.2027419131e+00
1.2028306176e+00
1.2029185836e+00
1.2030053329e+00
1.2030904262e+00
1.2031734677e+00
1.2032541056e+00
1.2033320342e+00
1.2034069933e+00
1.2034787693e+00
1.2035471924e+00
1.2036121369e+00
1.2036735174e+00
1.2037312876e+00
1.2037854368e+00
1.2038359871e+00
1.2038829896e+00
1.2039265219e+00
1.2039666835e+00
1.2040035934e+00
1.2040373860e+00
1.2040682084e+00
1.2040962168e+00
1.2041215746e+00
1.2041444486e+00
1.2041650076e+00
1.2041834198e+00
1.2041998512e+00
1.2042144639e+00
1.2042274148e+00
1.2042388546e+00
1.2042489270e+00
1.2042577678e+00
1.2042655048e+00
1.2042722573e+00
1.2042781361e+00
1.2042832432e+00
1.2042876725e+00
1.2042915093e+00
1.2042948311e+00
1.2042977078e+00
1.2043002017e+00
1.2043023685e+00
1.2043042574e+00
1.2043059113e+00
1.2043073676e+00
1.2043086588e+00
1.2043098124e+00
1.2043108516e+00
1.2043117958e+00
1.2043126609e+00
1.2043134599e+00
1.2043142029e+00
1.2043148979e+00
1.2043155508e+00
1.2043161660e+00
1.2043167465e+00
1.2043172945e+00
1.2043178112e+00
1.2043182975e+00
1.2043187540e+00
1.2043191811e+00
1.2043195793e+00
1.2043199492e+00
1.2043202919e+00
1.2043206086e+00
1.2043209009e+00
1.2043211707e+00
1.2043214205e+00
1.2043216529e+00
1.2043218710e+00
1.2043220780e+00
1.2043222776e+00
1.2043224735e+00
1.2043226700e+00
1.2043228715e+00
1.2043230827e+00
1.2043233089e+00
1.2043235559e+00
1.2043238297e+00
1.2043241368e+00
1.2043272513e+00
1.2017221453e+00
1.2017349757e+00
1.2017506187e+00
1.2017739436e+00
1.2018047419e+00
1.2018427384e+00
1.2018875959e+00
1.2019389191e+00
1.2019962620e+00
1.2020591327e+00
1.2021270024e+00
1.2021993111e+00
1.2022754769e+00
1.2023549025e+00
1.2024369843e+00
1.2025211183e+00
1.2026067093e+00
1.2026931753e+00
1.2027799566e+00
1.2028665185e+00
1.2029523588e+00
1.2030370099e+00
1.2031200442e+00
1.2032010747e+00
1.2032797589e+00
1.2033557981e+00
1.2034289392e+00
1.2034989732e+00
1.2035657353e+00
1.2036291022e+00
1.2036889915e+00
1.2037453577e+00
1.2037981909e+00
1.2038475124e+00
1.2038933726e+00
1.2039358470e+00
1.2039750331e+00
1.2040110469e+00
1.2040440198e+00
1.2040740952e+00
1.2041014260e+00
1.2041261712e+00
1.2041484940e+00
1.2041685589e+00
1.2041865301e+00
1.2042025696e+00
1.2042168355e+00
1.2042294810e+00
1.2042406531e+00
1.2042504920e+00
1.2042591302e+00
1.2042666923e+00
1.2042732947e+00
1.2042790454e+00
1.2042840441e+00
1.2042883821e+00
1.2042921427e+00
1.2042954014e+00
1.2042982261e+00
1.2043006778e+00
1.2043028104e+00
1.2043046718e+00
1.2043063038e+00
1.2043077426e+00
1.2043090195e+00
1.2043101612e+00
1.2043111901e+00
1.2043121249e+00
1.2043129809e+00
1.2043137703e+00
1.2043145028e+00
1.2043151860e+00
1.2043158255e+00
1.2043164253e+00
1.2043169884e+00
1.2043175166e+00
1.2043180113e+00
1.2043184734e+00
1.2043189033e+00
1.2043193019e+00
1.2043196697e+00
1.2043200077e+00
1.2043203172e+00
1.2043205997e+00
1.2043208574e+00
1.2043210926e+00
1.2043213082e+00
1.2043215074e+00
1.2043216939e+00
1.2043218713e+00
1.2043220440e+00
1.2043222162e+00
1.2043223926e+00
1.2043225779e+00
1.2043227773e+00
1.2043229958e+00
1.2043232388e+00
1.2043235115e+00
1.2043238188e+00
1.2043268348e+00
1.2017921330e+00
1.2018048070e+00
1.2018200406e+00
1.2018427508e+00
1.2018727328e+00
1.2019097185e+00
1.2019533784e+00
1.2020033282e+00
1.2020591327e+00
1.2021203142e+00
1.2021863570e+00
1.2022567173e+00
1.2023308279e+00
1.2024081087e+00
1.2024879714e+00
1.2025698294e+00
1.2026531027e+00
1.2027372262e+00
1.2028216541e+00
1.2029058676e+00
1.2029893771e+00
1.2030717287e+00
1.2031525055e+00
1.2032313323e+00
1.2033078749e+00
1.2033818438e+00
1.2034529922e+00
1.2035211176e+00
1.2035860591e+00
1.2036476977e+00
1.2037059527e+00
1.2037607807e+00
1.2038121715e+00
1.2038601466e+00
1.2039047548e+00
1.2039460700e+00
1.2039841867e+00
1.2040192183e+00
1.2040512925e+00
1.2040805490e+00
1.2041071364e+00
1.2041312097e+00
1.2041529275e+00
1.2041724499e+00
1.2041899368e+00
1.2042055456e+00
1.2042194303e+00
1.2042317398e+00
1.2042426171e+00
1.2042521986e+00
1.2042606132e+00
1.2042679821e+00
1.2042744185e+00
1.2042800273e+00
1.2042849055e+00
1.2042891419e+00
1.2042928174e+00
1.2042960053e+00
1.2042987717e+00
1.2043011757e+00
1.2043032696e+00
1.2043050997e+00
1.2043067066e+00
1.2043081252e+00
1.2043093859e+00
1.2043105141e+00
1.2043115316e+00
1.2043124561e+00
1.2043133023e+00
1.2043140817e+00
1.2043148037e+00
1.2043154752e+00
1.2043161015e+00
1.2043166864e+00
1.2043172325e+00
1.2043177417e+00
1.2043182151e+00
1.2043186537e+00
1.2043190581e+00
1.2043194290e+00
1.2043197675e+00
1.2043200745e+00
1.2043203518e+00
1.2043206013e+00
1.2043208254e+00
1.2043210270e+00
1.2043212093e+00
1.2043213762e+00
1.2043215316e+00
1.2043216799e+00
1.2043218257e+00
1.2043219740e+00
1.2043221295e+00
1.2043222975e+00
1.2043224831e+00
1.2043226913e+00
1.2043229272e+00
1.2043231953e+00
1.2043234997e+00
1.2043264126e+00
1.2018677351e+00
1.2018802199e+00
1.2018950078e+00
1.2019170494e+00
1.2019461457e+00
1.2019820352e+00
1.2020243984e+00
1.2020728613e+00
1.2021270024e+00
1.2021863570e+00
1.2022504259e+00
1.2023186803e+00
1.2023905713e+00
1.2024655348e+00
1.2025430015e+00
1.2026224013e+00
1.2027031726e+00
1.2027847664e+00
1.2028666544e+00
1.2029483323e+00
1.2030293264e+00
1.2031091955e+00
1.2031875365e+00
1.2032639845e+00
1.2033382165e+00
1.2034099509e+00
1.2034789494e+00
1.2035450149e+00
1.2036079925e+00
1.2036677660e+00
1.2037242580e+00
1.2037774260e+00
1.2038272609e+00
1.2038737831e+00
1.2039170405e+00
1.2039571045e+00
1.2039940675e+00
1.2040280389e+00
1.2040591431e+00
1.2040875155e+00
1.2041133005e+00
1.2041366481e+00
1.2041577124e+00
1.2041766487e+00
1.2041936121e+00
1.2042087553e+00
1.2042222276e+00
1.2042341734e+00
1.2042447315e+00
1.2042540340e+00
1.2042622060e+00
1.2042693651e+00
1.2042756209e+00
1.2042810752e+00
1.2042858220e+00
1.2042899474e+00
1.2042935297e+00
1.2042966400e+00
1.2042993423e+00
1.2043016935e+00
1.2043037445e+00
1.2043055399e+00
1.2043071188e+00
1.2043085149e+00
1.2043097574e+00
1.2043108707e+00
1.2043118756e+00
1.2043127890e+00
1.2043136248e+00
1.2043143940e+00
1.2043151053e+00
1.2043157652e+00
1.2043163786e+00
1.2043169489e+00
1.2043174786e+00
1.2043179693e+00
1.2043184222e+00
1.2043188380e+00
1.2043192177e+00
1.2043195619e+00
1.2043198719e+00
1.2043201490e+00
1.2043203950e+00
1.2043206124e+00
1.2043208038e+00
1.2043209726e+00
1.2043211225e+00
1.2043212576e+00
1.2043213825e+00
1.2043215019e+00
1.2043216210e+00
1.2043217449e+00
1.2043218789e+00
1.2043220284e+00
1.2043221987e+00
1.2043223947e+00
1.2043226212e+00
1.2043228824e+00
1.2043231818e+00
1.2043259890e+00
1.2019483222e+00
1.2019605890e+00
1.2019748990e+00
1.2019962250e+00
1.2020243736e+00
1.2020590918e+00
1.2021000696e+00
1.2021469456e+00
1.2021993111e+00
1.2022567173e+00
1.2023186803e+00
1.2023846898e+00
1.2024542137e+00
1.2025267078e+00
1.2026016201e+00
1.2026784007e+00
1.2027565052e+00
1.2028354040e+00
1.2029145852e+00
1.2029935622e+00
1.2030718760e+00
1.2031491013e+00
1.2032248471e+00
1.2032987617e+00
1.2033705322e+00
1.2034398873e+00
1.2035065957e+00
1.2035704680e+00
1.2036313536e+00
1.2036891412e+00
1.2037437556e+00
1.2037951562e+00
1.2038433338e+00
1.2038883091e+00
1.2039301279e+00
1.2039688597e+00
1.2040045937e+00
1.2040374362e+00
1.2040675071e+00
1.2040949378e+00
1.2041198676e+00
1.2041424420e+00
1.2041628099e+00
1.2041811215e+00
1.2041975266e+00
1.2042121731e+00
1.2042252053e+00
1.2042367629e+00
1.2042469799e+00
1.2042559843e+00
1.2042638970e+00
1.2042708314e+00
1.2042768937e+00
1.2042821824e+00
1.2042867881e+00
1.2042907940e+00
1.2042942760e+00
1.2042973025e+00
1.2042999352e+00
1.2043022293e+00
1.2043042335e+00
1.2043059911e+00
1.2043075393e+00
1.2043089109e+00
1.2043101334e+00
1.2043112305e+00
1.2043122217e+00
1.2043131232e+00
1.2043139482e+00
1.2043147069e+00
1.2043154073e+00
1.2043160557e+00