# vtk DataFile Version 2.0
Blank
ASCII
DATASET STRUCTURED_GRID
DIMENSIONS 101 101 2
POINTS 20402 float
0.0000000000e+00 0.0000000000e+00 0.0000000000e+00
1.0000000000e-02 0.0000000000e+00 0.0000000000e+00
2.0000000000e-02 0.0000000000e+00 0.0000000000e+00
3.0000000000e-02 0.0000000000e+00 0.0000000000e+00
4.0000000000e-02 0.0000000000e+00 0.0000000000e+00
5.0000000000e-02 0.0000000000e+00 0.0000000000e+00
6.0000000000e-02 0.0000000000e+00 0.0000000000e+00
7.0000000000e-02 0.0000000000e+00 0.0000000000e+00
8.0000000000e-02 0.0000000000e+00 0.0000000000e+00
9.0000000000e-02 0.0000000000e+00 0.0000000000e+00
1.0000000000e-01 0.0000000000e+00 0.0000000000e+00
1.1000000000e-01 0.0000000000e+00 0.0000000000e+00
1.2000000000e-01 0.0000000000e+00 0.0000000000e+00
1.3000000000e-01 0.0000000000e+00 0.0000000000e+00
1.4000000000e-01 0.0000000000e+00 0.0000000000e+00
1.5000000000e-01 0.0000000000e+00 0.0000000000e+00
1.6000000000e-01 0.0000000000e+00 0.0000000000e+00
1.7000000000e-01 0.0000000000e+00 0.0000000000e+00
1.8000000000e-01 0.0000000000e+00 0.0000000000e+00
1.9000000000e-01 0.0000000000e+00 0.0000000000e+00
2.0000000000e-01 0.0000000000e+00 0.0000000000e+00
2.1000000000e-01 0.0000000000e+00 0.0000000000e+00
2.2000000000e-01 0.0000000000e+00 0.0000000000e+00
2.3000000000e-01 0.0000000000e+00 0.0000000000e+00
2.4000000000e-01 0.0000000000e+00 0.0000000000e+00
2.5000000000e-01 0.0000000000e+00 0.0000000000e+00
2.6000000000e-01 0.0000000000e+00 0.0000000000e+00
2.7000000000e-01 0.0000000000e+00 0.0000000000e+00
2.8000000000e-01 0.0000000000e+00 0.0000000000e+00
2.9000000000e-01 0.0000000000e+00 0.0000000000e+00
3.0000000000e-01 0.0000000000e+00 0.0000000000e+00
3.1000000000e-01 0.0000000000e+00 0.0000000000e+00
3.2000000000e-01 0.0000000000e+00 0.0000000000e+00
3.3000000000e-01 0.0000000000e+00 0.0000000000e+00
3.4000000000e-01 0.0000000000e+00 0.0000000000e+00
3.5000000000e-01 0.0000000000e+00 0.0000000000e+00
3.6000000000e-01 0.0000000000e+00 0.0000000000e+00
3.7000000000e-01 0.0000000000e+00 0.0000000000e+00
3.8000000000e-01 0.0000000000e+00 0.0000000000e+00
3.9000000000e-01 0.0000000000e+00 0.0000000000e+00
4.0000000000e-01 0.0000000000e+00 0.0000000000e+00
4.1000000000e-01 0.0000000000e+00 0.0000000000e+00
4.2000000000e-01 0.0000000000e+00 0.0000000000e+00
4.3000000000e-01 0.0000000000e+00 0.0000000000e+00
4.4000000000e-01 0.0000000000e+00 0.0000000000e+00
4.5000000000e-01 0.0000000000e+00 0.0000000000e+00
4.6000000000e-01 0.0000000000e+00 0.0000000000e+00
4.7000000000e-01 0.0000000000e+00 0.0000000000e+00
4.8000000000e-01 0.0000000000e+00 0.0000000000e+00
4.9000000000e-01 0.0000000000e+00 0.0000000000e+00
5.0000000000e-01 0.0000000000e+00 0.0000000000e+00
5.1000000000e-01 0.0000000000e+00 0.0000000000e+00
5.2000000000e-01 0.0000000000e+00 0.0000000000e+00
5.3000000000e-01 0.0000000000e+00 0.0000000000e+00
5.4000000000e-01 0.0000000000e+00 0.0000000000e+00
5.5000000000e-01 0.0000000000e+00 0.0000000000e+00
5.6000000000e-01 0.0000000000e+00 0.0000000000e+00
5.7000000000e-01 0.0000000000e+00 0.0000000000e+00
5.8000000000e-01 0.0000000000e+00 0.0000000000e+00
5.9000000000e-01 0.0000000000e+00 0.0000000000e+00
6.0000000000e-01 0.0000000000e+00 0.0000000000e+00
6.1000000000e-01 0.0000000000e+00 0.0000000000e+00
6.2000000000e-01 0.0000000000e+00 0.0000000000e+00
6.3000000000e-01 0.0000000000e+00 0.0000000000e+00
6.4000000000e-01 0.0000000000e+00 0.0000000000e+00
6.5000000000e-01 0.0000000000e+00 0.0000000000e+00
6.6000000000e-01 0.0000000000e+00 0.0000000000e+00
6.7000000000e-01 0.0000000000e+00 0.0000000000e+00
6.8000000000e-01 0.0000000000e+00 0.0000000000e+00
6.9000000000e-01 0.0000000000e+00 0.0000000000e+00
7.0000000000e-01 0.0000000000e+00 0.0000000000e+00
7.1000000000e-01 0.0000000000e+00 0.0000000000e+00
7.2000000000e-01 0.0000000000e+00 0.0000000000e+00
7.3000000000e-01 0.0000000000e+00 0.0000000000e+00
7.4000000000e-01 0.0000000000e+00 0.0000000000e+00
7.5000000000e-01 0.0000000000e+00 0.0000000000e+00
7.6000000000e-01 0.0000000000e+00 0.0000000000e+00
7.7000000000e-01 0.0000000000e+00 0.0000000000e+00
7.8000000000e-01 0.0000000000e+00 0.0000000000e+00
7.9000000000e-01 0.0000000000e+00 0.0000000000e+00
8.0000000000e-01 0.0000000000e+00 0.0000000000e+00
8.1000000000e-01 0.0000000000e+00 0.0000000000e+00
8.2000000000e-01 0.0000000000e+00 0.0000000000e+00
8.3000000000e-01 0.0000000000e+00 0.0000000000e+00
8.4000000000e-01 0.0000000000e+00 0.0000000000e+00
8.5000000000e-01 0.0000000000e+00 0.0000000000e+00
8.6000000000e-01 0.0000000000e+00 0.0000000000e+00
8.7000000000e-01 0.0000000000e+00 0.0000000000e+00
8.8000000000e-01 0.0000000000e+00 0.0000000000e+00
8.9000000000e-01 0.0000000000e+00 0.0000000000e+00
9.0000000000e-01 0.0000000000e+00 0.0000000000e+00
9.1000000000e-01 0.0000000000e+00 0.0000000000e+00
9.2000000000e-01 0.0000000000e+00 0.0000000000e+00
9.3000000000e-01 0.0000000000e+00 0.0000000000e+00
9.4000000000e-01 0.0000000000e+00 0.0000000000e+00
9.5000000000e-01 0.0000000000e+00 0.0000000000e+00
9.6000000000e-01 0.0000000000e+00 0.0000000000e+00
9.7000000000e-01 0.0000000000e+00 0.0000000000e+00
9.8000000000e-01 0.0000000000e+00 0.0000000000e+00
9.9000000000e-01 0.0000000000e+00 0.0000000000e+00
1.0000000000e+00 0.0000000000e+00 0.0000000000e+00
0.0000000000e+00 1.0000000000e-02 0.0000000000e+00
1.0000000000e-02 1.0000000000e-02 0.0000000000e+00
2.0000000000e-02 1.0000000000e-02 0.0000000000e+00
3.0000000000e-02 1.0000000000e-02 0.0000000000e+00
4.0000000000e-02 1.0000000000e-02 0.0000000000e+00
5.0000000000e-02 1.0000000000e-02 0.0000000000e+00
6.0000000000e-02 1.0000000000e-02 0.0000000000e+00
7.0000000000e-02 1.0000000000e-02 0.0000000000e+00
8.0000000000e-02 1.0000000000e-02 0.0000000000e+00
9.0000000000e-02 1.0000000000e-02 0.0000000000e+00
1.0000000000e-01 1.0000000000e-02 0.0000000000e+00
1.1000000000e-01 1.0000000000e-02 0.0000000000e+00
1.2000000000e-01 1.0000000000e-02 0.0000000000e+00
1.3000000000e-01 1.0000000000e-02 0.0000000000e+00
1.4000000000e-01 1.0000000000e-02 0.0000000000e+00
1.5000000000e-01 1.0000000000e-02 0.0000000000e+00
1.6000000000e-01 1.0000000000e-02 0.0000000000e+00
1.7000000000e-01 1.0000000000e-02 0.0000000000e+00
1.8000000000e-01 1.0000000000e-02 0.0000000000e+00
1.9000000000e-01 1.0000000000e-02 0.0000000000e+00
2.0000000000e-01 1.0000000000e-02 0.0000000000e+00
2.1000000000e-01 1.0000000000e-02 0.0000000000e+00
2.2000000000e-01 1.0000000000e-02 0.0000000000e+00
2.3000000000e-01 1.0000000000e-02 0.0000000000e+00
2.4000000000e-01 1.0000000000e-02 0.0000000000e+00
2.5000000000e-01 1.0000000000e-02 0.0000000000e+00
2.6000000000e-01 1.0000000000e-02 0.0000000000e+00
2.7000000000e-01 1.0000000000e-02 0.0000000000e+00
2.8000000000e-01 1.0000000000e-02 0.0000000000e+00
2.9000000000e-01 1.0000000000e-02 0.0000000000e+00
3.0000000000e-01 1.0000000000e-02 0.0000000000e+00
3.1000000000e-01 1.0000000000e-02 0.0000000000e+00
3.2000000000e-01 1.0000000000e-02 0.0000000000e+00
3.3000000000e-01 1.0000000000e-02 0.0000000000e+00
3.4000000000e-01 1.0000000000e-02 0.0000000000e+00
3.5000000000e-01 1.0000000000e-02 0.0000000000e+00
3.6000000000e-01 1.0000000000e-02 0.0000000000e+00
3.7000000000e-01 1.0000000000e-02 0.0000000000e+00
3.8000000000e-01 1.0000000000e-02 0.0000000000e+00
3.9000000000e-01 1.0000000000e-02 0.0000000000e+00
4.0000000000e-01 1.0000000000e-02 0.0000000000e+00
4.1000000000e-01 1.0000000000e-02 0.0000000000e+00
4.2000000000e-01 1.0000000000e-02 0.0000000000e+00
4.3000000000e-01 1.0000000000e-02 0.0000000000e+00
4.4000000000e-01 1.0000000000e-02 0.0000000000e+00
4.5000000000e-01 1.0000000000e-02 0.0000000000e+00
4.6000000000e-01 1.0000000000e-02 0.0000000000e+00
4.7000000000e-01 1.0000000000e-02 0.0000000000e+00
4.8000000000e-01 1.0000000000e-02 0.0000000000e+00
4.9000000000e-01 1.0000000000e-02 0.0000000000e+00
5.0000000000e-01 1.0000000000e-02 0.0000000000e+00
5.1000000000e-01 1.0000000000e-02 0.0000000000e+00
5.2000000000e-01 1.0000000000e-02 0.0000000000e+00
5.3000000000e-01 1.0000000000e-02 0.0000000000e+00
5.4000000000e-01 1.0000000000e-02 0.0000000000e+00
5.5000000000e-01 1.0000000000e-02 0.0000000000e+00
5.6000000000e-01 1.0000000000e-02 0.0000000000e+00
5.7000000000e-01 1.0000000000e-02 0.0000000000e+00
5.8000000000e-01 1.0000000000e-02 0.0000000000e+00
5.9000000000e-01 1.0000000000e-02 0.0000000000e+00
6.0000000000e-01 1.0000000000e-02 0.0000000000e+00
6.1000000000e-01 1.0000000000e-02 0.0000000000e+00
6.2000000000e-01 1.0000000000e-02 0.0000000000e+00
6.3000000000e-01 1.0000000000e-02 0.0000000000e+00
6.4000000000e-01 1.0000000000e-02 0.0000000000e+00
6.5000000000e-01 1.0000000000e-02 0.0000000000e+00
6.6000000000e-01 1.0000000000e-02 0.0000000000e+00
6.7000000000e-01 1.0000000000e-02 0.0000000000e+00
6.8000000000e-01 1.0000000000e-02 0.0000000000e+00
6.9000000000e-01 1.0000000000e-02 0.0000000000e+00
7.0000000000e-01 1.0000000000e-02 0.0000000000e+00
7.1000000000e-01 1.0000000000e-02 0.0000000000e+00
7.2000000000e-01 1.0000000000e-02 0.0000000000e+00
7.3000000000e-01 1.0000000000e-02 0.0000000000e+00
7.4000000000e-01 1.0000000000e-02 0.0000000000e+00
7.5000000000e-01 1.0000000000e-02 0.0000000000e+00
7.6000000000e-01 1.0000000000e-02 0.0000000000e+00
7.7000000000e-01 1.0000000000e-02 0.0000000000e+00
7.8000000000e-01 1.0000000000e-02 0.0000000000e+00
7.9000000000e-01 1.0000000000e-02 0.0000000000e+00
8.0000000000e-01 1.0000000000e-02 0.0000000000e+00
8.1000000000e-01 1.0000000000e-02 0.0000000000e+00
8.2000000000e-01 1.0000000000e-02 0.0000000000e+00
8.3000000000e-01 1.0000000000e-02 0.0000000000e+00
8.4000000000e-01 1.0000000000e-02 0.0000000000e+00
8.5000000000e-01 1.0000000000e-02 0.0000000000e+00
8.6000000000e-01 1.0000000000e-02 0.0000000000e+00
8.7000000000e-01 1.0000000000e-02 0.0000000000e+00
8.8000000000e-01 1.0000000000e-02 0.0000000000e+00
8.9000000000e-01 1.0000000000e-02 0.0000000000e+00
9.0000000000e-01 1.0000000000e-02 0.0000000000e+00
9.1000000000e-01 1.0000000000e-02 0.0000000000e+00
9.2000000000e-01 1.0000000000e-02 0.0000000000e+00
[...]
CELL_DATA 10000

SCALARS massDensity float
LOOKUP_TABLE default
1.2012829488e+00
1.2012922667e+00
1.2013113001e+00
1.2013398418e+00
1.2013776207e+00
1.2014242765e+00
1.2014793671e+00
1.2015423763e+00
1.2016127225e+00
1.2016897672e+00
1.2017728255e+00
1.2018611754e+00
1.2019540686e+00
1.2020507407e+00
1.2021504215e+00
1.2022523451e+00
1.2023557594e+00
1.2024599347e+00
1.2025641723e+00
1.2026678110e+00
1.2027702341e+00
1.2028708739e+00
1.2029692160e+00
1.2030648022e+00
1.2031572326e+00
1.2032461659e+00
1.2033313200e+00
1.2034124703e+00
1.2034894481e+00
1.2035621380e+00
1.2036304750e+00
1.2036944402e+00
1.2037540573e+00
1.2038093880e+00
1.2038605276e+00
1.2039076003e+00
1.2039507551e+00
1.2039901606e+00
1.2040260016e+00
1.2040584742e+00
1.2040877831e+00
1.2041141369e+00
1.2041377464e+00
1.2041588207e+00
1.2041775655e+00
1.2041941809e+00
1.2042088597e+00
1.2042217861e+00
1.2042331350e+00
1.2042430706e+00
1.2042517467e+00
1.2042593057e+00
1.2042658792e+00
1.2042715880e+00
1.2042765422e+00
1.2042808415e+00
1.2042845761e+00
1.2042878269e+00
1.2042906664e+00
1.2042931590e+00
1.2042953619e+00
1.2042973256e+00
1.2042990945e+00
1.2043007077e+00
1.2043021992e+00
1.2043035988e+00
1.2043049324e+00
1.2043062222e+00
1.2043074874e+00
1.2043087446e+00
1.2043100076e+00
1.2043112880e+00
1.2043125954e+00
1.2043139373e+00
1.2043153194e+00
1.2043167453e+00
1.2043182173e+00
1.2043197355e+00
1.2043212985e+00
1.2043229030e+00
1.2043245439e+00
1.2043262141e+00
1.2043279050e+00
1.2043296060e+00
1.2043313046e+00
1.2043329866e+00
1.2043346361e+00
1.2043362353e+00
1.2043377648e+00
1.2043392034e+00
1.2043405280e+00
1.2043417127e+00
1.2043427288e+00
1.2043435429e+00
1.2043441154e+00
1.2043443983e+00
1.2043443321e+00
1.2043438458e+00
1.2043428637e+00
1.2043473404e+00
1.2012922667e+00
1.2013016851e+00
1.2013207440e+00
1.2013492984e+00
1.2013870709e+00
1.2014336988e+00
1.2014887393e+00
1.2015516769e+00
1.2016219310e+00
1.2016988650e+00
1.2017817956e+00
1.2018700033e+00
1.2019627417e+00
1.2020592490e+00
1.2021587574e+00
1.2022605034e+00
1.2023637370e+00
1.2024677311e+00
1.2025717887e+00
1.2026752509e+00
1.2027775020e+00
1.2028779761e+00
1.2029761596e+00
1.2030715954e+00
1.2031638837e+00
1.2032526841e+00
1.2033377141e+00
1.2034187492e+00
1.2034956205e+00
1.2035682122e+00
1.2036364585e+00
1.2037003401e+00
1.2037598799e+00
1.2038151389e+00
1.2038662115e+00
1.2039132214e+00
1.2039563164e+00
1.2039956646e+00
1.2040314499e+00
1.2040638678e+00
1.2040931221e+00
1.2041194211e+00
1.2041429745e+00
1.2041639912e+00
1.2041826762e+00
1.2041992290e+00
1.2042138421e+00
1.2042266992e+00
1.2042379745e+00
1.2042478321e+00
1.2042564250e+00
1.2042638956e+00
1.2042703749e+00
1.2042759832e+00
1.2042808302e+00
1.2042850153e+00
1.2042886280e+00
1.2042917491e+00
1.2042944504e+00
1.2042967958e+00
1.2042988420e+00
1.2043006390e+00
1.2043022308e+00
1.2043036557e+00
1.2043049475e+00
1.2043061353e+00
1.2043072444e+00
1.2043082967e+00
1.2043093111e+00
1.2043103035e+00
1.2043112876e+00
1.2043122750e+00
1.2043132750e+00
1.2043142952e+00
1.2043153417e+00
1.2043164187e+00
1.2043175290e+00
1.2043186738e+00
1.2043198528e+00
1.2043210644e+00
1.2043223052e+00
1.2043235705e+00
1.2043248541e+00
1.2043261483e+00
1.2043274440e+00
1.2043287304e+00
1.2043299957e+00
1.2043312265e+00
1.2043324082e+00
1.2043335247e+00
1.2043345590e+00
1.2043354923e+00
1.2043363045e+00
1.2043369734e+00
1.2043374755e+00
1.2043377853e+00
1.2043378776e+00
1.2043377314e+00
1.2043373417e+00
1.2043430491e+00
1.2013113001e+00
1.2013207440e+00
1.2013396690e+00
1.2013680326e+00
1.2014055581e+00
1.2014518844e+00
1.2015065712e+00
1.2015691060e+00
1.2016389119e+00
1.2017153562e+00
1.2017977602e+00
1.2018854086e+00
1.2019775603e+00
1.2020734580e+00
1.2021723391e+00
1.2022734449e+00
1.2023760305e+00
1.2024793729e+00
1.2025827802e+00
1.2026855970e+00
1.2027872122e+00
1.2028870627e+00
1.2029846385e+00
1.2030794848e+00
1.2031712047e+00
1.2032594590e+00
1.2033439674e+00
1.2034245061e+00
1.2035009073e+00
1.2035730553e+00
1.2036408849e+00
1.2037043764e+00
1.2037635524e+00
1.2038184732e+00
1.2038692328e+00
1.2039159535e+00
1.2039587824e+00
1.2039978863e+00
1.2040334480e+00
1.2040656617e+00
1.2040947300e+00
1.2041208598e+00
1.2041442597e+00
1.2041651372e+00
1.2041836963e+00
1.2042001352e+00
1.2042146453e+00
1.2042274094e+00
1.2042386007e+00
1.2042483822e+00
1.2042569064e+00
1.2042643146e+00
1.2042707373e+00
1.2042762941e+00
1.2042810941e+00
1.2042852361e+00
1.2042888094e+00
1.2042918940e+00
1.2042945615e+00
1.2042968755e+00
1.2042988924e+00
1.2043006619e+00
1.2043022277e+00
1.2043036282e+00
1.2043048968e+00
1.2043060626e+00
1.2043071508e+00
1.2043081832e+00
1.2043091787e+00
1.2043101532e+00
1.2043111205e+00
1.2043120919e+00
1.2043130772e+00
1.2043140839e+00
1.2043151180e+00
1.2043161840e+00
1.2043172848e+00
1.2043184216e+00
1.2043195943e+00
1.2043208013e+00
1.2043220395e+00
1.2043233041e+00
1.2043245890e+00
1.2043258868e+00
1.2043271881e+00
1.2043284826e+00
1.2043297584e+00
1.2043310023e+00
1.2043321998e+00
1.2043333356e+00
1.2043343930e+00
1.2043353546e+00
1.2043362024e+00
1.2043369178e+00
1.2043374826e+00
1.2043378806e+00
1.2043381000e+00
1.2043381393e+00
1.2043380180e+00
1.2043444262e+00
1.2013398418e+00
1.2013492984e+00
1.2013680326e+00
1.2013961167e+00
1.2014332764e+00
1.2014791537e+00
1.2015333125e+00
1.2015952451e+00
1.2016643799e+00
1.2017400907e+00
1.2018217048e+00
1.2019085145e+00
1.2019997851e+00
1.2020947674e+00
1.2021927056e+00
1.2022928487e+00
1.2023944587e+00
1.2024968201e+00
1.2025992469e+00
1.2027010908e+00
1.2028017456e+00
1.2029006542e+00
1.2029973109e+00
1.2030912655e+00
1.2031821242e+00
1.2032695513e+00
1.2033532685e+00
1.2034330543e+00
1.2035087417e+00
1.2035802166e+00
1.2036474134e+00
1.2037103129e+00
1.2037689369e+00
1.2038233453e+00
1.2038736305e+00
1.2039199141e+00
1.2039623412e+00
1.2040010772e+00
1.2040363029e+00
1.2040682109e+00
1.2040970015e+00
1.2041228801e+00
1.2041460530e+00
1.2041667260e+00
1.2041851011e+00
1.2042013750e+00
1.2042157371e+00
1.2042283687e+00
1.2042394414e+00
1.2042491170e+00
1.2042575463e+00
1.2042648697e+00
1.2042712165e+00
1.2042767052e+00
1.2042814439e+00
1.2042855308e+00
1.2042890543e+00
1.2042920938e+00
1.2042947201e+00
1.2042969965e+00
1.2042989789e+00
1.2043007166e+00
1.2043022530e+00
1.2043036261e+00
1.2043048690e+00
1.2043060108e+00
1.2043070764e+00
1.2043080876e+00
1.2043090631e+00
1.2043100188e+00
1.2043109685e+00
1.2043119236e+00
1.2043128937e+00
1.2043138865e+00
1.2043149081e+00
1.2043159630e+00
1.2043170542e+00
1.2043181830e+00
1.2043193495e+00
1.2043205521e+00
1.2043217878e+00
1.2043230521e+00
1.2043243389e+00
1.2043256407e+00
1.2043269487e+00
1.2043282524e+00
1.2043295403e+00
1.2043307992e+00
1.2043320153e+00
1.2043331736e+00
1.2043342584e+00
1.2043352536e+00
1.2043361429e+00
1.2043369107e+00
1.2043375431e+00
1.2043380294e+00
1.2043383647e+00
1.2043385548e+00
1.2043386225e+00
1.2043455368e+00
1.2013776207e+00
1.2013870709e+00
1.2014055581e+00
1.2014332764e+00
1.2014699550e+00
1.2015152404e+00
1.2015687022e+00
1.2016298390e+00
1.2016980869e+00
1.2017728272e+00
1.2018533967e+00
1.2019390957e+00
1.2020292003e+00
1.2021229698e+00
1.2022196592e+00
1.2023185263e+00
1.2024188433e+00
1.2025199033e+00
1.2026210298e+00
1.2027215819e+00
1.2028209620e+00
1.2029186192e+00
1.2030140549e+00
1.2031068237e+00
1.2031965374e+00
1.2032828639e+00
1.2033655285e+00
1.2034443119e+00
1.2035190496e+00
1.2035896279e+00
1.2036559825e+00
1.2037180937e+00
1.2037759832e+00
1.2038297095e+00
1.2038793642e+00
1.2039250666e+00
1.2039669603e+00
1.2040052082e+00
1.2040399890e+00
1.2040714925e+00
1.2040999167e+00
1.2041254642e+00
1.2041483390e+00
1.2041687441e+00
1.2041868791e+00
1.2042029382e+00
1.2042171086e+00
1.2042295694e+00
1.2042404901e+00
1.2042500305e+00
1.2042583399e+00
1.2042655567e+00
1.2042718088e+00
1.2042772133e+00
1.2042818771e+00
1.2042858972e+00
1.2042893609e+00
1.2042923468e+00
1.2042949250e+00
1.2042971578e+00
1.2042991007e+00
1.2043008024e+00
1.2043023058e+00
1.2043036485e+00
1.2043048635e+00
1.2043059792e+00
1.2043070207e+00
1.2043080093e+00
1.2043089638e+00
1.2043098999e+00
1.2043108313e+00
1.2043117695e+00
1.2043127240e+00
1.2043137026e+00
1.2043147115e+00
1.2043157552e+00
1.2043168366e+00
1.2043179575e+00
1.2043191178e+00
1.2043203162e+00
1.2043215497e+00
1.2043228140e+00
1.2043241031e+00
1.2043254098e+00
1.2043267252e+00
1.2043280392e+00
1.2043293404e+00
1.2043306162e+00
1.2043318529e+00
1.2043330361e+00
1.2043341510e+00
1.2043351826e+00
1.2043361160e+00
1.2043369379e+00
1.2043376367e+00
1.2043382047e+00
1.2043386397e+00
1.2043389482e+00
1.2043391488e+00
1.2043464409e+00
1.2014242765e+00
1.2014336988e+00
1.2014518844e+00
1.2014791537e+00
1.2015152404e+00
1.2015597970e+00
1.2016123994e+00
1.2016725549e+00
1.2017397082e+00
1.2018132511e+00
1.2018925305e+00
1.2019768588e+00
1.2020655228e+00
1.2021577948e+00
1.2022529408e+00
1.2023502316e+00
1.2024489501e+00
1.2025484017e+00
1.2026479197e+00
1.2027468745e+00
1.2028446771e+00
1.2029407862e+00
1.2030347101e+00
1.2031260114e+00
1.2032143069e+00
1.2032992704e+00
1.2033806308e+00
1.2034581726e+00
1.2035317330e+00
1.2036012006e+00
1.2036665113e+00
1.2037276459e+00
1.2037846252e+00
1.2038375069e+00
1.2038863804e+00
1.2039313636e+00
1.2039725972e+00
1.2040102418e+00
1.2040444727e+00
1.2040754771e+00
1.2041034495e+00
1.2041285894e+00
1.2041510976e+00
1.2041711739e+00
1.2041890148e+00
1.2042048115e+00
1.2042187483e+00
1.2042310015e+00
1.2042417382e+00
1.2042511156e+00
1.2042592807e+00
1.2042663701e+00
1.2042725095e+00
1.2042778144e+00
1.2042823901e+00
1.2042863322e+00
1.2042897266e+00
1.2042926509e+00
1.2042951741e+00
1.2042973577e+00
1.2042992563e+00
1.2043009180e+00
1.2043023851e+00
1.2043036947e+00
1.2043048793e+00
1.2043059672e+00
1.2043069829e+00
1.2043079477e+00
1.2043088800e+00
1.2043097957e+00
1.2043107082e+00
1.2043116289e+00
1.2043125675e+00
1.2043135316e+00
1.2043145275e+00
1.2043155597e+00
1.2043166315e+00
1.2043177444e+00
1.2043188987e+00
1.2043200930e+00
1.2043213245e+00
1.2043225891e+00
1.2043238811e+00
1.2043251931e+00
1.2043265167e+00
1.2043278420e+00
1.2043291576e+00
1.2043304514e+00
1.2043317101e+00
1.2043329198e+00
1.2043340663e+00
1.2043351353e+00
1.2043361133e+00
1.2043369879e+00
1.2043377489e+00
1.2043383897e+00
1.2043389082e+00
1.2043393090e+00
1.2043396045e+00
1.2043471899e+00
1.2014793671e+00
1.2014887393e+00
1.2015065712e+00
1.2015333125e+00
1.2015687022e+00
1.2016123994e+00
1.2016639887e+00
1.2017229864e+00
1.2017888485e+00
1.2018609780e+00
1.2019387350e+00
1.2020214446e+00
1.2021084083e+00
1.2021989115e+00
1.2022922352e+00
1.2023876635e+00
1.2024844941e+00
1.2025820447e+00
1.2026796625e+00
1.2027767289e+00
1.2028726672e+00
1.2029669454e+00
1.2030590821e+00
1.2031486472e+00
1.2032352656e+00
1.2033186162e+00
1.2033984338e+00
1.2034745060e+00
1.2035466736e+00
1.2036148264e+00
1.2036789020e+00
1.2037388806e+00
1.2037947830e+00
1.2038466650e+00
1.2038946148e+00
1.2039387472e+00
1.2039792006e+00
1.2040161320e+00
1.2040497136e+00
1.2040801287e+00
1.2041075683e+00
1.2041322279e+00
1.2041543045e+00
1.2041739942e+00
1.2041914897e+00
1.2042069787e+00
1.2042206421e+00
1.2042326529e+00
1.2042431751e+00
1.2042523630e+00
1.2042603611e+00
1.2042673031e+00
1.2042733129e+00
1.2042785036e+00
1.2042829788e+00
1.2042868322e+00
1.2042901484e+00
1.2042930034e+00
1.2042954653e+00
1.2042975942e+00
1.2042994440e+00
1.2043010619e+00
1.2043024896e+00
1.2043037634e+00
1.2043049155e+00
1.2043059737e+00
1.2043069621e+00
1.2043079019e+00
1.2043088111e+00
1.2043097055e+00
1.2043105984e+00
1.2043115011e+00
1.2043124233e+00
1.2043133726e+00
1.2043143552e+00
1.2043153760e+00
1.2043164379e+00
1.2043175429e+00
1.2043186912e+00
1.2043198815e+00
1.2043211114e+00
1.2043223767e+00
1.2043236718e+00
1.2043249898e+00
1.2043263222e+00
1.2043276593e+00
1.2043289902e+00
1.2043303029e+00
1.2043315845e+00
1.2043328214e+00
1.2043339999e+00
1.2043351064e+00
1.2043361277e+00
1.2043370523e+00
1.2043378702e+00
1.2043385747e+00
1.2043391626e+00
1.2043396358e+00
1.2043400010e+00
1.2043478231e+00
1.2015423763e+00
1.2015516769e+00
1.2015691060e+00
1.2015952451e+00
1.2016298390e+00
1.2016725549e+00
1.2017229864e+00
1.2017806613e+00
1.2018450471e+00
1.2019155611e+00
1.2019915771e+00
1.2020724364e+00
1.2021574550e+00
1.2022459356e+00
1.2023371744e+00
1.2024304726e+00
1.2025251426e+00
1.2026205187e+00
1.2027159614e+00
1.2028108670e+00
1.2029046708e+00
1.2029968535e+00
1.2030869434e+00
1.2031745209e+00
1.2032592181e+00
1.2033407220e+00
1.2034187720e+00
1.2034931611e+00
1.2035637328e+00
1.2036303798e+00
1.2036930400e+00
1.2037516947e+00
1.2038063632e+00
1.2038571005e+00
1.2039039921e+00
1.2039471506e+00
1.2039867106e+00
1.2040228260e+00
1.2040556646e+00
1.2040854060e+00
1.2041122365e+00
1.2041363475e+00
1.2041579315e+00
1.2041771803e+00
1.2041942823e+00
1.2042094212e+00
1.2042227738e+00
1.2042345095e+00
1.2042447887e+00
1.2042537624e+00
1.2042615718e+00
1.2042683481e+00
1.2042742122e+00
1.2042792752e+00
1.2042836381e+00
1.2042873930e+00
1.2042906225e+00
1.2042934013e+00
1.2042957957e+00
1.2042978650e+00
1.2042996617e+00
1.2043012323e+00
1.2043026175e+00
1.2043038532e+00
1.2043049707e+00
1.2043059975e+00
1.2043069573e+00
1.2043078708e+00
1.2043087560e+00
1.2043096283e+00
1.2043105010e+00
1.2043113852e+00
1.2043122905e+00
1.2043132247e+00
1.2043141939e+00
1.2043152030e+00
1.2043162551e+00
1.2043173521e+00
1.2043184944e+00
1.2043196810e+00
1.2043209094e+00
1.2043221756e+00
1.2043234743e+00
1.2043247986e+00
1.2043261403e+00
1.2043274899e+00
1.2043288366e+00
1.2043301687e+00
1.2043314735e+00
1.2043327378e+00
1.2043339482e+00
1.2043350912e+00
1.2043361540e+00
1.2043371251e+00
1.2043379944e+00
1.2043387544e+00
1.2043394005e+00
1.2043399315e+00
1.2043403496e+00
1.2043483701e+00
1.2016127225e+00
1.2016219310e+00
1.2016389119e+00
1.2016643799e+00
1.2016980869e+00
1.2017397082e+00
1.2017888485e+00
1.2018450471e+00
1.2019077861e+00
1.2019764969e+00
1.2020505703e+00
1.2021293636e+00
1.2022122115e+00
1.2022984336e+00
1.2023873452e+00
1.2024782644e+00
1.2025705224e+00
1.2026634692e+00
1.2027564831e+00
1.2028489746e+00
1.2029403944e+00
1.2030302354e+00
1.2031180390e+00
1.2032033949e+00
1.2032859457e+00
1.2033653851e+00
1.2034414599e+00
1.2035139675e+00
1.2035827557e+00
1.2036477190e+00
1.2037087974e+00
1.2037659717e+00
1.2038192613e+00
1.2038687189e+00
1.2039144281e+00
1.2039564980e+00
1.2039950601e+00
1.2040302637e+00
1.2040622729e+00
1.2040912620e+00
1.2041174130e+00
1.2041409120e+00
1.2041619469e+00
1.2041807045e+00
1.2041973685e+00
1.2042121179e+00
1.2042251253e+00
1.2042365556e+00
1.2042465653e+00
1.2042553018e+00
1.2042629028e+00
1.2042694962e+00
1.2042752000e+00
1.2042801226e+00
1.2042843626e+00
1.2042880098e+00
1.2042911450e+00
1.2042938408e+00
1.2042961623e+00
1.2042981673e+00
1.2042999071e+00
1.2043014271e+00
1.2043027671e+00
1.2043039624e+00
1.2043050434e+00
1.2043060372e+00
1.2043069671e+00
1.2043078533e+00
1.2043087136e+00
1.2043095631e+00
1.2043104149e+00
1.2043112802e+00
1.2043121683e+00
1.2043130870e+00
1.2043140426e+00
1.2043150398e+00
1.2043160820e+00
1.2043171710e+00
1.2043183075e+00
1.2043194904e+00
1.2043207175e+00
1.2043219849e+00
1.2043232874e+00
1.2043246183e+00
1.2043259697e+00
1.2043273321e+00
1.2043286950e+00
1.2043300467e+00
1.2043313749e+00
1.2043326664e+00
1.2043339080e+00
1.2043350862e+00
1.2043361883e+00
1.2043372024e+00
1.2043381181e+00
1.2043389268e+00
1.2043396222e+00
1.2043402005e+00
1.2043406604e+00
1.2043488529e+00
1.2016897672e+00
1.2016988650e+00
1.2017153562e+00
1.2017400907e+00
1.2017728272e+00
1.2018132511e+00
1.2018609780e+00
1.2019155611e+00
1.2019764969e+00
1.2020432340e+00
1.2021151800e+00
1.2021917117e+00
1.2022721820e+00
1.2023559312e+00
1.2024422934e+00
1.2025306075e+00
1.2026202226e+00
1.2027105090e+00
1.2028008613e+00
1.2028907084e+00
1.2029795153e+00
1.2030667909e+00
1.2031520882e+00
1.2032350099e+00
1.2033152075e+00
1.2033923845e+00
1.2034662936e+00
1.2035367389e+00
1.2036035714e+00
1.2036666891e+00
1.2037260330e+00
1.2037815848e+00
1.2038333623e+00
1.2038814172e+00
1.2039258301e+00
1.2039667070e+00
1.2040041753e+00
1.2040383802e+00
1.2040694805e+00
1.2040976458e+00
1.2041230526e+00
1.2041458820e+00
1.2041663161e+00
1.2041845366e+00
1.2042007219e+00
1.2042150460e+00
1.2042276766e+00
1.2042387739e+00
1.2042484902e+00
1.2042569686e+00
1.2042643430e+00
1.2042707380e+00
1.2042762681e+00
1.2042810388e+00
1.2042851461e+00
1.2042886773e+00
1.2042917110e+00
1.2042943181e+00
1.2042965616e+00
1.2042984981e+00
1.2043001775e+00
1.2043016439e+00
1.2043029364e+00
1.2043040891e+00
1.2043051320e+00
1.2043060914e+00
1.2043069901e+00
1.2043078481e+00
1.2043086826e+00
1.2043095086e+00
1.2043103390e+00
1.2043111849e+00
1.2043120554e+00
1.2043129585e+00
1.2043139002e+00
1.2043148855e+00
1.2043159176e+00
1.2043169987e+00
1.2043181293e+00
1.2043193086e+00
1.2043205345e+00
1.2043218033e+00
1.2043231099e+00
1.2043244478e+00
1.2043258091e+00
1.2043271846e+00
1.2043285638e+00
1.2043299353e+00
1.2043312867e+00
1.2043326049e+00
1.2043338768e+00
1.2043350888e+00
1.2043362279e+00
1.2043372819e+00
1.2043382396e+00
1.2043390913e+00
1.2043398293e+00
1.2043404475e+00
1.2043409419e+00
1.2043492879e+00
1.2017728255e+00
1.2017817956e+00
1.2017977602e+00
1.2018217048e+00
1.2018533967e+00
1.2018925305e+00
1.2019387350e+00
1.2019915771e+00
1.2020505703e+00
1.2021151800e+00
1.2021848337e+00
1.2022589272e+00
1.2023368353e+00
1.2024179183e+00
1.2025015328e+00
1.2025870376e+00
1.2026738041e+00
1.2027612210e+00
1.2028487040e+00
1.2029356987e+00
1.2030216885e+00
1.2031061964e+00
1.2031887910e+00
1.2032690864e+00
1.2033467461e+00
1.2034214818e+00
1.2034930550e+00
1.2035612748e+00
1.2036259976e+00
1.2036871237e+00
1.2037445964e+00
1.2037983971e+00
1.2038485435e+00
1.2038950848e+00
1.2039380993e+00
1.2039776891e+00
1.2040139777e+00
1.2040471052e+00
1.2040772255e+00
1.2041045026e+00
1.2041291075e+00
1.2041512151e+00
1.2041710022e+00
1.2041886443e+00
1.2042043145e+00
1.2042181810e+00
1.2042304064e+00
1.2042411460e+00
1.2042505473e+00
1.2042587489e+00
1.2042658806e+00
1.2042720631e+00
1.2042774076e+00
1.2042820162e+00
1.2042859821e+00
1.2042893899e+00
1.2042923160e+00
1.2042948289e+00
1.2042969901e+00
1.2042988543e+00
1.2043004701e+00
1.2043018804e+00
1.2043031231e+00
1.2043042314e+00
1.2043052347e+00
1.2043061584e+00
1.2043070249e+00
1.2043078537e+00
1.2043086617e+00
1.2043094636e+00
1.2043102722e+00
1.2043110982e+00
1.2043119509e+00
1.2043128379e+00
1.2043137656e+00
1.2043147388e+00
1.2043157608e+00
1.2043168339e+00
1.2043179587e+00
1.2043191346e+00
1.2043203595e+00
1.2043216298e+00
1.2043229407e+00
1.2043242857e+00
1.2043256571e+00
1.2043270458e+00
1.2043284415e+00
1.2043298326e+00
1.2043312070e+00
1.2043325515e+00
1.2043338526e+00
1.2043350970e+00
1.2043362710e+00
1.2043373621e+00
1.2043383581e+00
1.2043392485e+00
1.2043400241e+00
1.2043406770e+00
1.2043412010e+00
1.2043496877e+00
1.2018611754e+00
1.2018700033e+00
1.2018854086e+00
1.2019085145e+00
1.2019390957e+00
1.2019768588e+00
1.2020214446e+00
1.2020724364e+00
1.2021293636e+00
1.2021917117e+00
1.2022589272e+00
1.2023304284e+00
1.2024056109e+00
1.2024838588e+00
1.2025645500e+00
1.2026470671e+00
1.2027308024e+00
1.2028151675e+00
1.2028995971e+00
1.2029835575e+00
1.2030665490e+00
1.2031481125e+00
1.2032278304e+00
1.2033053313e+00
1.2033802894e+00
1.2034524272e+00
1.2035215136e+00
1.2035873649e+00
1.2036498416e+00
1.2037088480e+00
1.2037643285e+00
1.2038162654e+00
1.2038646751e+00
1.2039096055e+00
1.2039511313e+00
1.2039893513e+00
1.2040243842e+00
1.2040563653e+00
1.2040854428e+00
1.2041117751e+00
1.2041355269e+00
1.2041568671e+00
1.2041759662e+00
1.2041929937e+00
1.2042081165e+00
1.2042214972e+00
1.2042332926e+00
1.2042436528e+00
1.2042527200e+00
1.2042606283e+00
1.2042675032e+00
1.2042734610e+00
1.2042786094e+00
1.2042830469e+00
1.2042868638e+00
1.2042901418e+00
1.2042929546e+00
1.2042953688e+00
1.2042974438e+00
1.2042992325e+00
1.2043007820e+00
1.2043021339e+00
1.2043033248e+00
1.2043043873e+00
1.2043053495e+00
1.2043062365e+00
1.2043070698e+00
1.2043078687e+00
1.2043086496e+00
1.2043094269e+00
1.2043102130e+00
1.2043110189e+00