# vtk DataFile Version 2.0
Blank
ASCII
DATASET STRUCTURED_GRID
DIMENSIONS 101 101 2
POINTS 20402 float
0.0000000000e+00 0.0000000000e+00 0.0000000000e+00
1.0000000000e-02 0.0000000000e+00 0.0000000000e+00
2.0000000000e-02 0.0000000000e+00 0.0000000000e+00
3.0000000000e-02 0.0000000000e+00 0.0000000000e+00
4.0000000000e-02 0.0000000000e+00 0.0000000000e+00
5.0000000000e-02 0.0000000000e+00 0.0000000000e+00
6.0000000000e-02 0.0000000000e+00 0.0000000000e+00
7.0000000000e-02 0.0000000000e+00 0.0000000000e+00
8.0000000000e-02 0.0000000000e+00 0.0000000000e+00
9.0000000000e-02 0.0000000000e+00 0.0000000000e+00
1.0000000000e-01 0.0000000000e+00 0.0000000000e+00
1.1000000000e-01 0.0000000000e+00 0.0000000000e+00
1.2000000000e-01 0.0000000000e+00 0.0000000000e+00
1.3000000000e-01 0.0000000000e+00 0.0000000000e+00
1.4000000000e-01 0.0000000000e+00 0.0000000000e+00
1.5000000000e-01 0.0000000000e+00 0.0000000000e+00
1.6000000000e-01 0.0000000000e+00 0.0000000000e+00
1.7000000000e-01 0.0000000000e+00 0.0000000000e+00
1.8000000000e-01 0.0000000000e+00 0.0000000000e+00
1.9000000000e-01 0.0000000000e+00 0.0000000000e+00
2.0000000000e-01 0.0000000000e+00 0.0000000000e+00
2.1000000000e-01 0.0000000000e+00 0.0000000000e+00
2.2000000000e-01 0.0000000000e+00 0.0000000000e+00
2.3000000000e-01 0.0000000000e+00 0.0000000000e+00
2.4000000000e-01 0.0000000000e+00 0.0000000000e+00
2.5000000000e-01 0.0000000000e+00 0.0000000000e+00
2.6000000000e-01 0.0000000000e+00 0.0000000000e+00
2.7000000000e-01 0.0000000000e+00 0.0000000000e+00
2.8000000000e-01 0.0000000000e+00 0.0000000000e+00
2.9000000000e-01 0.0000000000e+00 0.0000000000e+00
3.0000000000e-01 0.0000000000e+00 0.0000000000e+00
3.1000000000e-01 0.0000000000e+00 0.0000000000e+00
3.2000000000e-01 0.0000000000e+00 0.0000000000e+00
3.3000000000e-01 0.0000000000e+00 0.0000000000e+00
3.4000000000e-01 0.0000000000e+00 0.0000000000e+00
3.5000000000e-01 0.0000000000e+00 0.0000000000e+00
3.6000000000e-01 0.0000000000e+00 0.0000000000e+00
3.7000000000e-01 0.0000000000e+00 0.0000000000e+00
3.8000000000e-01 0.0000000000e+00 0.0000000000e+00
3.9000000000e-01 0.0000000000e+00 0.0000000000e+00
4.0000000000e-01 0.0000000000e+00 0.0000000000e+00
4.1000000000e-01 0.0000000000e+00 0.0000000000e+00
4.2000000000e-01 0.0000000000e+00 0.0000000000e+00
4.3000000000e-01 0.0000000000e+00 0.0000000000e+00
4.4000000000e-01 0.0000000000e+00 0.0000000000e+00
4.5000000000e-01 0.0000000000e+00 0.0000000000e+00
4.6000000000e-01 0.0000000000e+00 0.0000000000e+00
4.7000000000e-01 0.0000000000e+00 0.0000000000e+00
4.8000000000e-01 0.0000000000e+00 0.0000000000e+00
4.9000000000e-01 0.0000000000e+00 0.0000000000e+00
5.0000000000e-01 0.0000000000e+00 0.0000000000e+00
5.1000000000e-01 0.0000000000e+00 0.0000000000e+00
5.2000000000e-01 0.0000000000e+00 0.0000000000e+00
5.3000000000e-01 0.0000000000e+00 0.0000000000e+00
5.4000000000e-01 0.0000000000e+00 0.0000000000e+00
5.5000000000e-01 0.0000000000e+00 0.0000000000e+00
5.6000000000e-01 0.0000000000e+00 0.0000000000e+00
5.7000000000e-01 0.0000000000e+00 0.0000000000e+00
5.8000000000e-01 0.0000000000e+00 0.0000000000e+00
5.9000000000e-01 0.0000000000e+00 0.0000000000e+00
6.0000000000e-01 0.0000000000e+00 0.0000000000e+00
6.1000000000e-01 0.0000000000e+00 0.0000000000e+00
6.2000000000e-01 0.0000000000e+00 0.0000000000e+00
6.3000000000e-01 0.0000000000e+00 0.0000000000e+00
6.4000000000e-01 0.0000000000e+00 0.0000000000e+00
6.5000000000e-01 0.0000000000e+00 0.0000000000e+00
6.6000000000e-01 0.0000000000e+00 0.0000000000e+00
6.7000000000e-01 0.0000000000e+00 0.0000000000e+00
6.8000000000e-01 0.0000000000e+00 0.0000000000e+00
6.9000000000e-01 0.0000000000e+00 0.0000000000e+00
7.0000000000e-01 0.0000000000e+00 0.0000000000e+00
7.1000000000e-01 0.0000000000e+00 0.0000000000e+00
7.2000000000e-01 0.0000000000e+00 0.0000000000e+00
7.3000000000e-01 0.0000000000e+00 0.0000000000e+00
7.4000000000e-01 0.0000000000e+00 0.0000000000e+00
7.5000000000e-01 0.0000000000e+00 0.0000000000e+00
7.6000000000e-01 0.0000000000e+00 0.0000000000e+00
7.7000000000e-01 0.0000000000e+00 0.0000000000e+00
7.8000000000e-01 0.0000000000e+00 0.0000000000e+00
7.9000000000e-01 0.0000000000e+00 0.0000000000e+00
8.0000000000e-01 0.0000000000e+00 0.0000000000e+00
8.1000000000e-01 0.0000000000e+00 0.0000000000e+00
8.2000000000e-01 0.0000000000e+00 0.0000000000e+00
8.3000000000e-01 0.0000000000e+00 0.0000000000e+00
8.4000000000e-01 0.0000000000e+00 0.0000000000e+00
8.5000000000e-01 0.0000000000e+00 0.0000000000e+00
8.6000000000e-01 0.0000000000e+00 0.0000000000e+00
8.7000000000e-01 0.0000000000e+00 0.0000000000e+00
8.8000000000e-01 0.0000000000e+00 0.0000000000e+00
8.9000000000e-01 0.0000000000e+00 0.0000000000e+00
9.0000000000e-01 0.0000000000e+00 0.0000000000e+00
9.1000000000e-01 0.0000000000e+00 0.0000000000e+00
9.2000000000e-01 0.0000000000e+00 0.0000000000e+00
9.3000000000e-01 0.0000000000e+00 0.0000000000e+00
9.4000000000e-01 0.0000000000e+00 0.0000000000e+00
9.5000000000e-01 0.0000000000e+00 0.0000000000e+00
9.6000000000e-01 0.0000000000e+00 0.0000000000e+00
9.7000000000e-01 0.0000000000e+00 0.0000000000e+00
9.8000000000e-01 0.0000000000e+00 0.0000000000e+00
9.9000000000e-01 0.0000000000e+00 0.0000000000e+00
1.0000000000e+00 0.0000000000e+00 0.0000000000e+00
0.0000000000e+00 1.0000000000e-02 0.0000000000e+00
1.0000000000e-02 1.0000000000e-02 0.0000000000e+00
2.0000000000e-02 1.0000000000e-02 0.0000000000e+00
3.0000000000e-02 1.0000000000e-02 0.0000000000e+00
4.0000000000e-02 1.0000000000e-02 0.0000000000e+00
5.0000000000e-02 1.0000000000e-02 0.0000000000e+00
6.0000000000e-02 1.0000000000e-02 0.0000000000e+00
7.0000000000e-02 1.0000000000e-02 0.0000000000e+00
8.0000000000e-02 1.0000000000e-02 0.0000000000e+00
9.0000000000e-02 1.0000000000e-02 0.0000000000e+00
1.0000000000e-01 1.0000000000e-02 0.0000000000e+00
1.1000000000e-01 1.0000000000e-02 0.0000000000e+00
1.2000000000e-01 1.0000000000e-02 0.0000000000e+00
1.3000000000e-01 1.0000000000e-02 0.0000000000e+00
1.4000000000e-01 1.0000000000e-02 0.0000000000e+00
1.5000000000e-01 1.0000000000e-02 0.0000000000e+00
1.6000000000e-01 1.0000000000e-02 0.0000000000e+00
1.7000000000e-01 1.0000000000e-02 0.0000000000e+00
1.8000000000e-01 1.0000000000e-02 0.0000000000e+00
1.9000000000e-01 1.0000000000e-02 0.0000000000e+00
2.0000000000e-01 1.0000000000e-02 0.0000000000e+00
2.1000000000e-01 1.0000000000e-02 0.0000000000e+00
2.2000000000e-01 1.0000000000e-02 0.0000000000e+00
2.3000000000e-01 1.0000000000e-02 0.0000000000e+00
2.4000000000e-01 1.0000000000e-02 0.0000000000e+00
2.5000000000e-01 1.0000000000e-02 0.0000000000e+00
2.6000000000e-01 1.0000000000e-02 0.0000000000e+00
2.7000000000e-01 1.0000000000e-02 0.0000000000e+00
2.8000000000e-01 1.0000000000e-02 0.0000000000e+00
2.9000000000e-01 1.0000000000e-02 0.0000000000e+00
3.0000000000e-01 1.0000000000e-02 0.0000000000e+00
3.1000000000e-01 1.0000000000e-02 0.0000000000e+00
3.2000000000e-01 1.0000000000e-02 0.0000000000e+00
3.3000000000e-01 1.0000000000e-02 0.0000000000e+00
3.4000000000e-01 1.0000000000e-02 0.0000000000e+00
3.5000000000e-01 1.0000000000e-02 0.0000000000e+00
3.6000000000e-01 1.0000000000e-02 0.0000000000e+00
3.7000000000e-01 1.0000000000e-02 0.0000000000e+00
3.8000000000e-01 1.0000000000e-02 0.0000000000e+00
3.9000000000e-01 1.0000000000e-02 0.0000000000e+00
4.0000000000e-01 1.0000000000e-02 0.0000000000e+00
4.1000000000e-01 1.0000000000e-02 0.0000000000e+00
4.2000000000e-01 1.0000000000e-02 0.0000000000e+00
4.3000000000e-01 1.0000000000e-02 0.0000000000e+00
4.4000000000e-01 1.0000000000e-02 0.0000000000e+00
4.5000000000e-01 1.0000000000e-02 0.0000000000e+00
4.6000000000e-01 1.0000000000e-02 0.0000000000e+00
4.7000000000e-01 1.0000000000e-02 0.0000000000e+00
4.8000000000e-01 1.0000000000e-02 0.0000000000e+00
4.9000000000e-01 1.0000000000e-02 0.0000000000e+00
5.0000000000e-01 1.0000000000e-02 0.0000000000e+00
5.1000000000e-01 1.0000000000e-02 0.0000000000e+00
5.2000000000e-01 1.0000000000e-02 0.0000000000e+00
5.3000000000e-01 1.0000000000e-02 0.0000000000e+00
5.4000000000e-01 1.0000000000e-02 0.0000000000e+00
5.5000000000e-01 1.0000000000e-02 0.0000000000e+00
5.6000000000e-01 1.0000000000e-02 0.0000000000e+00
5.7000000000e-01 1.0000000000e-02 0.0000000000e+00
5.8000000000e-01 1.0000000000e-02 0.0000000000e+00
5.9000000000e-01 1.0000000000e-02 0.0000000000e+00
6.0000000000e-01 1.0000000000e-02 0.0000000000e+00
6.1000000000e-01 1.0000000000e-02 0.0000000000e+00
6.2000000000e-01 1.0000000000e-02 0.0000000000e+00
6.3000000000e-01 1.0000000000e-02 0.0000000000e+00
6.4000000000e-01 1.0000000000e-02 0.0000000000e+00
6.5000000000e-01 1.0000000000e-02 0.0000000000e+00
6.6000000000e-01 1.0000000000e-02 0.0000000000e+00
6.7000000000e-01 1.0000000000e-02 0.0000000000e+00
6.8000000000e-01 1.0000000000e-02 0.0000000000e+00
6.9000000000e-01 1.0000000000e-02 0.0000000000e+00
7.0000000000e-01 1.0000000000e-02 0.0000000000e+00
7.1000000000e-01 1.0000000000e-02 0.0000000000e+00
7.2000000000e-01 1.0000000000e-02 0.0000000000e+00
7.3000000000e-01 1.0000000000e-02 0.0000000000e+00
7.4000000000e-01 1.0000000000e-02 0.0000000000e+00
7.5000000000e-01 1.0000000000e-02 0.0000000000e+00
7.6000000000e-01 1.0000000000e-02 0.0000000000e+00
7.7000000000e-01 1.0000000000e-02 0.0000000000e+00
7.8000000000e-01 1.0000000000e-02 0.0000000000e+00
7.9000000000e-01 1.0000000000e-02 0.0000000000e+00
8.0000000000e-01 1.0000000000e-02 0.0000000000e+00
8.1000000000e-01 1.0000000000e-02 0.0000000000e+00
8.2000000000e-01 1.0000000000e-02 0.0000000000e+00
8.3000000000e-01 1.0000000000e-02 0.0000000000e+00
8.4000000000e-01 1.0000000000e-02 0.0000000000e+00
8.5000000000e-01 1.0000000000e-02 0.0000000000e+00
8.6000000000e-01 1.0000000000e-02 0.0000000000e+00
8.7000000000e-01 1.0000000000e-02 0.0000000000e+00
8.8000000000e-01 1.0000000000e-02 0.0000000000e+00
8.9000000000e-01 1.0000000000e-02 0.0000000000e+00
9.0000000000e-01 1.0000000000e-02 0.0000000000e+00
9.1000000000e-01 1.0000000000e-02 0.0000000000e+00
9.2000000000e-01 1.0000000000e-02 0.0000000000e+00
[...]
CELL_DATA 10000

SCALARS massDensity float
LOOKUP_TABLE default
1.1874823173e+00
1.1878551973e+00
1.1883816551e+00
1.1891516867e+00
1.1901258311e+00
1.1912572718e+00
1.1924951125e+00
1.1937881380e+00
1.1950878096e+00
1.1963512557e+00
1.1975430309e+00
1.1986365196e+00
1.1996140431e+00
1.2004666318e+00
1.2011928203e+00
1.2017973935e+00
1.2022896368e+00
1.2026818616e+00
1.2029878351e+00
1.2032216706e+00
1.2033968243e+00
1.2035255547e+00
1.2036185110e+00
1.2036846670e+00
1.2037313162e+00
1.2037642657e+00
1.2037880183e+00
1.2038060367e+00
1.2038209548e+00
1.2038348027e+00
1.2038491764e+00
1.2038653863e+00
1.2038845719e+00
1.2039077791e+00
1.2039360302e+00
1.2039703469e+00
1.2040117876e+00
1.2040614244e+00
1.2041203498e+00
1.2041896008e+00
1.2042701201e+00
1.2043626092e+00
1.2044674232e+00
1.2045843410e+00
1.2047124089e+00
1.2048496750e+00
1.2049930754e+00
1.2051382756e+00
1.2052797863e+00
1.2054111066e+00
1.2055252362e+00
1.2056151938e+00
1.2056748708e+00
1.2056996941e+00
1.2056874369e+00
1.2056385292e+00
1.2055563165e+00
1.2054466193e+00
1.2053172491e+00
1.2051769354e+00
1.2050344765e+00
1.2048976500e+00
1.2047726448e+00
1.2046635453e+00
1.2045723897e+00
1.2044993157e+00
1.2044430633e+00
1.2044014268e+00
1.2043717861e+00
1.2043514752e+00
1.2043380788e+00
1.2043295701e+00
1.2043243666e+00
1.2043213021e+00
1.2043195645e+00
1.2043186159e+00
1.2043181175e+00
1.2043178655e+00
1.2043177429e+00
1.2043176855e+00
1.2043176597e+00
1.2043176486e+00
1.2043176439e+00
1.2043176421e+00
1.2043176414e+00
1.2043176411e+00
1.2043176410e+00
1.2043176410e+00
1.2043176410e+00
1.2043176410e+00
1.2043176410e+00
1.2043176410e+00
1.2043176410e+00
1.2043176410e+00
1.2043176410e+00
1.2043176410e+00
1.2043176410e+00
1.2043176410e+00
1.2043176410e+00
1.2043176410e+00
1.1878551973e+00
1.1882447097e+00
1.1887729276e+00
1.1895365221e+00
1.1904983637e+00
1.1916132274e+00
1.1928318281e+00
1.1941039636e+00
1.1953822691e+00
1.1966245201e+00
1.1977960861e+00
1.1988706934e+00
1.1998311408e+00
1.2006685365e+00
1.2013816019e+00
1.2019750011e+00
1.2024579972e+00
1.2028426634e+00
1.2031426261e+00
1.2033717197e+00
1.2035432159e+00
1.2036691055e+00
1.2037598536e+00
1.2038241992e+00
1.2038692660e+00
1.2039006568e+00
1.2039227107e+00
1.2039386977e+00
1.2039510754e+00
1.2039616708e+00
1.2039718690e+00
1.2039827448e+00
1.2039951735e+00
1.2040099156e+00
1.2040276663e+00
1.2040491092e+00
1.2040749242e+00
1.2041058263e+00
1.2041425418e+00
1.2041858368e+00
1.2042364584e+00
1.2042951371e+00
1.2043624701e+00
1.2044388680e+00
1.2045243548e+00
1.2046184499e+00
1.2047199070e+00
1.2048266028e+00
1.2049353415e+00
1.2050419286e+00
1.2051412369e+00
1.2052276459e+00
1.2052954591e+00
1.2053396773e+00
1.2053565534e+00
1.2053443418e+00
1.2053035130e+00
1.2052370042e+00
1.2051497363e+00
1.2050482199e+00
1.2049395354e+00
1.2048306791e+00
1.2047276024e+00
1.2046348648e+00
1.2045552258e+00
1.2044898280e+00
1.2044383452e+00
1.2043994685e+00
1.2043712628e+00
1.2043516009e+00
1.2043384177e+00
1.2043299178e+00
1.2043246439e+00
1.2043214963e+00
1.2043196883e+00
1.2043186895e+00
1.2043181585e+00
1.2043178871e+00
1.2043177537e+00
1.2043176907e+00
1.2043176621e+00
1.2043176496e+00
1.2043176444e+00
1.2043176423e+00
1.2043176415e+00
1.2043176412e+00
1.2043176411e+00
1.2043176410e+00
1.2043176410e+00
1.2043176410e+00
1.2043176410e+00
1.2043176410e+00
1.2043176410e+00
1.2043176410e+00
1.2043176410e+00
1.2043176410e+00
1.2043176410e+00
1.2043176410e+00
1.2043176410e+00
1.2043176410e+00
1.1883816551e+00
1.1887729276e+00
1.1892878257e+00
1.1900287285e+00
1.1909600382e+00
1.1920386438e+00
1.1932168957e+00
1.1944466812e+00
1.1956820534e+00
1.1968825108e+00
1.1980143911e+00
1.1990525542e+00
1.1999802150e+00
1.2007889879e+00
1.2014775181e+00
1.2020504750e+00
1.2025167227e+00
1.2028880452e+00
1.2031775418e+00
1.2033986580e+00
1.2035641607e+00
1.2036856823e+00
1.2037732849e+00
1.2038354361e+00
1.2038789757e+00
1.2039093251e+00
1.2039306389e+00
1.2039460722e+00
1.2039579648e+00
1.2039680644e+00
1.2039776737e+00
1.2039877975e+00
1.2039992392e+00
1.2040126795e+00
1.2040287354e+00
1.2040479908e+00
1.2040710383e+00
1.2040984817e+00
1.2041309750e+00
1.2041692070e+00
1.2042139368e+00
1.2042659467e+00
1.2043260437e+00
1.2043949377e+00
1.2044731577e+00
1.2045608138e+00
1.2046574148e+00
1.2047615584e+00
1.2048707663e+00
1.2049812959e+00
1.2050882453e+00
1.2051857389e+00
1.2052675007e+00
1.2053274565e+00
1.2053606423e+00
1.2053638488e+00
1.2053363496e+00
1.2052799831e+00
1.2051991934e+00
1.2051002737e+00
1.2049907508e+00
1.2048781895e+00
1.2047695108e+00
1.2046700888e+00
1.2045835723e+00
1.2045116670e+00
1.2044545085e+00
1.2044109479e+00
1.2043791081e+00
1.2043567520e+00
1.2043416747e+00
1.2043318973e+00
1.2043258027e+00
1.2043221484e+00
1.2043200418e+00
1.2043188736e+00
1.2043182508e+00
1.2043179316e+00
1.2043177743e+00
1.2043176998e+00
1.2043176660e+00
1.2043176512e+00
1.2043176450e+00
1.2043176425e+00
1.2043176415e+00
1.2043176412e+00
1.2043176411e+00
1.2043176410e+00
1.2043176410e+00
1.2043176410e+00
1.2043176410e+00
1.2043176410e+00
1.2043176410e+00
1.2043176410e+00
1.2043176410e+00
1.2043176410e+00
1.2043176410e+00
1.2043176410e+00
1.2043176410e+00
1.2043176410e+00
1.1891516867e+00
1.1895365221e+00
1.1900287285e+00
1.1907347712e+00
1.1916211639e+00
1.1926467898e+00
1.1937668047e+00
1.1949352690e+00
1.1961089201e+00
1.1972490282e+00
1.1983239519e+00
1.1993095890e+00
1.2001902761e+00
1.2009578788e+00
1.2016113313e+00
1.2021549454e+00
1.2025973017e+00
1.2029495010e+00
1.2032240932e+00
1.2034337763e+00
1.2035907428e+00
1.2037059813e+00
1.2037890860e+00
1.2038480501e+00
1.2038893880e+00
1.2039182081e+00
1.2039384620e+00
1.2039531122e+00
1.2039643757e+00
1.2039738814e+00
1.2039828493e+00
1.2039922003e+00
1.2040026641e+00
1.2040148456e+00
1.2040292771e+00
1.2040464607e+00
1.2040668891e+00
1.2040910848e+00
1.2041196096e+00
1.2041531152e+00
1.2041923437e+00
1.2042381741e+00
1.2042915798e+00
1.2043536097e+00
1.2044252293e+00
1.2045071614e+00
1.2045995682e+00
1.2047017675e+00
1.2048118687e+00
1.2049265772e+00
1.2050410850e+00
1.2051493007e+00
1.2052442705e+00
1.2053189812e+00
1.2053671966e+00
1.2053844924e+00
1.2053688950e+00
1.2053214586e+00
1.2052460423e+00
1.2051490199e+00
1.2050381651e+00
1.2049218300e+00
1.2048076445e+00
1.2047019280e+00
1.2046089701e+00
1.2045311115e+00
1.2044687739e+00
1.2044210153e+00
1.2043859263e+00
1.2043611988e+00
1.2043444599e+00
1.2043335777e+00
1.2043267766e+00
1.2043226920e+00
1.2043203332e+00
1.2043190240e+00
1.2043183253e+00
1.2043179671e+00
1.2043177905e+00
1.2043177070e+00
1.2043176690e+00
1.2043176524e+00
1.2043176455e+00
1.2043176427e+00
1.2043176416e+00
1.2043176412e+00
1.2043176411e+00
1.2043176410e+00
1.2043176410e+00
1.2043176410e+00
1.2043176410e+00
1.2043176410e+00
1.2043176410e+00
1.2043176410e+00
1.2043176410e+00
1.2043176410e+00
1.2043176410e+00
1.2043176410e+00
1.2043176410e+00
1.2043176410e+00
1.1901258311e+00
1.1904983637e+00
1.1909600382e+00
1.1916211639e+00
1.1924501209e+00
1.1934088493e+00
1.1944551582e+00
1.1955465596e+00
1.1966423376e+00
1.1977067269e+00
1.1987099006e+00
1.1996297053e+00
1.2004512942e+00
1.2011673567e+00
1.2017767335e+00
1.2022836622e+00
1.2026960335e+00
1.2030243560e+00
1.2032802549e+00
1.2034756762e+00
1.2036219305e+00
1.2037293299e+00
1.2038067735e+00
1.2038617523e+00
1.2039003021e+00
1.2039272061e+00
1.2039461167e+00
1.2039598035e+00
1.2039703062e+00
1.2039791396e+00
1.2039874141e+00
1.2039959710e+00
1.2040054587e+00
1.2040164061e+00
1.2040292678e+00
1.2040444587e+00
1.2040623905e+00
1.2040834940e+00
1.2041082701e+00
1.2041373174e+00
1.2041714026e+00
1.2042114784e+00
1.2042587279e+00
1.2043145004e+00
1.2043802274e+00
1.2044571768e+00
1.2045461627e+00
1.2046471193e+00
1.2047587101e+00
1.2048779627e+00
1.2050001321e+00
1.2051188023e+00
1.2052263794e+00
1.2053148519e+00
1.2053768757e+00
1.2054067888e+00
1.2054016582e+00
1.2053617022e+00
1.2052905339e+00
1.2051944575e+00
1.2050817908e+00
1.2049614168e+00
1.2048418792e+00
1.2047301449e+00
1.2046312647e+00
1.2045479631e+00
1.2044810199e+00
1.2044295435e+00
1.2043916445e+00
1.2043648758e+00
1.2043467376e+00
1.2043349311e+00
1.2043275511e+00
1.2043231171e+00
1.2043205577e+00
1.2043191377e+00
1.2043183807e+00
1.2043179929e+00
1.2043178021e+00
1.2043177119e+00
1.2043176710e+00
1.2043176532e+00
1.2043176458e+00
1.2043176428e+00
1.2043176416e+00
1.2043176412e+00
1.2043176411e+00
1.2043176410e+00
1.2043176410e+00
1.2043176410e+00
1.2043176410e+00
1.2043176410e+00
1.2043176410e+00
1.2043176410e+00
1.2043176410e+00
1.2043176410e+00
1.2043176410e+00
1.2043176410e+00
1.2043176410e+00
1.2043176410e+00
1.1912572718e+00
1.1916132274e+00
1.1920386438e+00
1.1926467898e+00
1.1934088493e+00
1.1942895029e+00
1.1952504031e+00
1.1962521779e+00
1.1972578820e+00
1.1982343514e+00
1.1991546153e+00
1.1999980671e+00
1.2007514246e+00
1.2014077714e+00
1.2019663090e+00
1.2024307739e+00
1.2028085942e+00
1.2031093002e+00
1.2033436807e+00
1.2035226110e+00
1.2036565425e+00
1.2037548698e+00
1.2038258000e+00
1.2038761535e+00
1.2039114913e+00
1.2039361612e+00
1.2039535262e+00
1.2039660953e+00
1.2039757430e+00
1.2039838318e+00
1.2039913733e+00
1.2039991112e+00
1.2040076187e+00
1.2040173457e+00
1.2040286696e+00
1.2040419272e+00
1.2040574454e+00
1.2040755845e+00
1.2040967776e+00
1.2041216045e+00
1.2041508470e+00
1.2041855744e+00
1.2042271633e+00
1.2042773002e+00
1.2043378467e+00
1.2044106233e+00
1.2044970245e+00
1.2045975614e+00
1.2047113446e+00
1.2048356511e+00
1.2049656865e+00
1.2050946639e+00
1.2052142780e+00
1.2053155819e+00
1.2053901093e+00
1.2054311787e+00
1.2054348918e+00
1.2054009671e+00
1.2053326853e+00
1.2052366371e+00
1.2051214647e+00
1.2049968669e+00
1.2048719832e+00
1.2047546135e+00
1.2046502514e+00
1.2045621156e+00
1.2044911101e+00
1.2044364663e+00
1.2043961902e+00
1.2043677501e+00
1.2043484767e+00
1.2043359441e+00
1.2043281153e+00
1.2043234193e+00
1.2043207123e+00
1.2043192136e+00
1.2043184162e+00
1.2043180088e+00
1.2043178088e+00
1.2043177146e+00
1.2043176720e+00
1.2043176536e+00
1.2043176459e+00
1.2043176428e+00
1.2043176417e+00
1.2043176412e+00
1.2043176411e+00
1.2043176410e+00
1.2043176410e+00
1.2043176410e+00
1.2043176410e+00
1.2043176410e+00
1.2043176410e+00
1.2043176410e+00
1.2043176410e+00
1.2043176410e+00
1.2043176410e+00
1.2043176410e+00
1.2043176410e+00
1.2043176410e+00
1.1924951125e+00
1.1928318281e+00
1.1932168957e+00
1.1937668047e+00
1.1944551582e+00
1.1952504031e+00
1.1961175378e+00
1.1970214547e+00
1.1979284437e+00
1.1988090163e+00
1.1996385214e+00
1.2003987584e+00
1.2010774969e+00
1.2016688127e+00
1.2021718004e+00
1.2025900611e+00
1.2029301583e+00
1.2032008424e+00
1.2034117414e+00
1.2035727594e+00
1.2036932435e+00
1.2037817219e+00
1.2038455351e+00
1.2038908659e+00
1.2039226823e+00
1.2039449234e+00
1.2039605861e+00
1.2039719426e+00
1.2039806547e+00
1.2039879520e+00
1.2039947201e+00
1.2040016186e+00
1.2040091330e+00
1.2040176414e+00
1.2040274435e+00
1.2040387998e+00
1.2040519639e+00
1.2040672252e+00
1.2040849738e+00
1.2041057708e+00
1.2041304509e+00
1.2041601997e+00
1.2041966277e+00
1.2042417484e+00
1.2042978728e+00
1.2043673353e+00
1.2044520801e+00
1.2045531151e+00
1.2046699089e+00
1.2047998827e+00
1.2049380857e+00
1.2050772771e+00
1.2052084047e+00
1.2053215661e+00
1.2054072934e+00
1.2054579090e+00
1.2054688386e+00
1.2054392800e+00
1.2053725616e+00
1.2052754033e+00
1.2051571281e+00
1.2050279467e+00
1.2048978554e+00
1.2047751213e+00
1.2046658448e+00
1.2045734254e+00
1.2044989940e+00
1.2044417081e+00
1.2043995415e+00
1.2043697907e+00
1.2043496704e+00
1.2043366072e+00
1.2043284682e+00
1.2043235967e+00
1.2043207972e+00
1.2043192515e+00
1.2043184321e+00
1.2043180149e+00
1.2043178109e+00
1.2043177152e+00
1.2043176721e+00
1.2043176535e+00
1.2043176458e+00
1.2043176428e+00
1.2043176416e+00
1.2043176412e+00
1.2043176411e+00
1.2043176410e+00
1.2043176410e+00
1.2043176410e+00
1.2043176410e+00
1.2043176410e+00
1.2043176410e+00
1.2043176410e+00
1.2043176410e+00
1.2043176410e+00
1.2043176410e+00
1.2043176410e+00
1.2043176410e+00
1.2043176410e+00
1.1937881380e+00
1.1941039636e+00
1.1944466812e+00
1.1949352690e+00
1.1955465596e+00
1.1962521779e+00
1.1970214547e+00
1.1978228630e+00
1.1986269358e+00
1.1994071741e+00
1.2001421316e+00
1.2008153872e+00
1.2014164489e+00
1.2019398487e+00
1.2023850543e+00
1.2027550987e+00
1.2030559892e+00
1.2032953638e+00
1.2034818784e+00
1.2036242216e+00
1.2037307512e+00
1.2038089569e+00
1.2038653870e+00
1.2039054681e+00
1.2039336282e+00
1.2039533180e+00
1.2039672083e+00
1.2039772818e+00
1.2039850181e+00
1.2039914799e+00
1.2039974488e+00
1.2040034801e+00
1.2040099859e+00
1.2040172631e+00
1.2040255420e+00
1.2040350084e+00
1.2040458478e+00
1.2040582935e+00
1.2040726990e+00
1.2040896364e+00
1.2041100037e+00
1.2041351420e+00
1.2041669049e+00
1.2042076621e+00
1.2042601642e+00
1.2043272445e+00
1.2044113478e+00
1.2045138932e+00
1.2046346191e+00
1.2047709503e+00
1.2049176914e+00
1.2050670297e+00
1.2052091330e+00
1.2053331559e+00
1.2054286639e+00
1.2054871896e+00
1.2055035170e+00
1.2054766859e+00
1.2054099924e+00
1.2053106901e+00
1.2051885263e+00
1.2050545608e+00
1.2049192637e+00
1.2047915995e+00
1.2046778909e+00
1.2045818636e+00
1.2045045953e+00
1.2044452669e+00
1.2044016716e+00
1.2043710049e+00
1.2043503140e+00
1.2043369273e+00
1.2043286112e+00
1.2043236533e+00
1.2043208141e+00
1.2043192533e+00
1.2043184293e+00
1.2043180117e+00
1.2043178086e+00
1.2043177138e+00
1.2043176714e+00
1.2043176532e+00
1.2043176457e+00
1.2043176427e+00
1.2043176416e+00
1.2043176412e+00
1.2043176411e+00
1.2043176410e+00
1.2043176410e+00
1.2043176410e+00
1.2043176410e+00
1.2043176410e+00
1.2043176410e+00
1.2043176410e+00
1.2043176410e+00
1.2043176410e+00
1.2043176410e+00
1.2043176410e+00
1.2043176410e+00
1.2043176410e+00
1.1950878096e+00
1.1953822691e+00
1.1956820534e+00
1.1961089201e+00
1.1966423376e+00
1.1972578820e+00
1.1979284437e+00
1.1986269358e+00
1.1993273163e+00
1.2000068999e+00
1.2006466907e+00
1.2012327498e+00
1.2017556940e+00
1.2022110593e+00
1.2025982012e+00
1.2029199825e+00
1.2031815024e+00
1.2033895626e+00
1.2035516026e+00
1.2036752829e+00
1.2037678065e+00
1.2038357516e+00
1.2038847626e+00
1.2039195984e+00
1.2039440702e+00
1.2039612033e+00
1.2039732894e+00
1.2039820664e+00
1.2039887944e+00
1.2039944016e+00
1.2039995398e+00
1.2040046818e+00
1.2040101501e+00
1.2040161749e+00
1.2040229100e+00
1.2040304772e+00
1.2040389985e+00
1.2040486624e+00
1.2040598060e+00
1.2040730297e+00
1.2040893289e+00
1.2041102228e+00
1.2041378423e+00
1.2041749268e+00
1.2042246686e+00
1.2042903813e+00
1.2043749408e+00
1.2044801138e+00
1.2046057580e+00
1.2047492170e+00
1.2049048750e+00
1.2050643000e+00
1.2052167903e+00
1.2053505893e+00
1.2054543962e+00
1.2055190264e+00
1.2055389283e+00
1.2055129818e+00
1.2054448704e+00
1.2053421985e+00
1.2052155400e+00
1.2050764381e+00
1.2049361401e+00
1.2048038728e+00
1.2046863812e+00
1.2045873511e+00
1.2045079389e+00
1.2044471236e+00
1.2044026110e+00
1.2043713978e+00
1.2043504295e+00
1.2043369130e+00
1.2043285560e+00
1.2043235946e+00
1.2043207679e+00
1.2043192215e+00
1.2043184095e+00
1.2043180003e+00
1.2043178025e+00
1.2043177107e+00
1.2043176699e+00
1.2043176525e+00
1.2043176454e+00
1.2043176426e+00
1.2043176416e+00
1.2043176412e+00
1.2043176411e+00
1.2043176410e+00
1.2043176410e+00
1.2043176410e+00
1.2043176410e+00
1.2043176410e+00
1.2043176410e+00
1.2043176410e+00
1.2043176410e+00
1.2043176410e+00
1.2043176410e+00
1.2043176410e+00
1.2043176410e+00
1.2043176410e+00
1.1963512557e+00
1.1966245201e+00
1.1968825108e+00
1.1972490282e+00
1.1977067269e+00
1.1982343514e+00
1.1988090163e+00
1.1994071741e+00
1.2000068999e+00
1.2005884515e+00
1.2011359291e+00
1.2016371389e+00
1.2020843620e+00
1.2024735781e+00
1.2028044796e+00
1.2030793695e+00
1.2033027852e+00
1.2034804389e+00
1.2036188106e+00
1.2037243735e+00
1.2038033615e+00
1.2038613402e+00
1.2039031817e+00
1.2039329088e+00
1.2039538089e+00
1.2039684326e+00
1.2039787565e+00
1.2039862371e+00
1.2039919598e+00
1.2039966892e+00
1.2040009782e+00
1.2040051959e+00
1.2040095961e+00
1.2040143284e+00
1.2040194858e+00
1.2040251220e+00
1.2040313108e+00
1.2040382063e+00
1.2040461507e+00
1.2040557990e+00
1.2040682753e+00
1.2040853113e+00
1.2041093466e+00
1.2041435060e+00
1.2041914319e+00
1.2042568708e+00
1.2043430938e+00
1.2044520735e+00
1.2045837146e+00
1.2047350713e+00
1.2049000500e+00
1.2050694251e+00
1.2052316439e+00
1.2053740260e+00
1.2054844972e+00
1.2055533720e+00
1.2055748311e+00
1.2055479918e+00
1.2054768309e+00
1.2053697492e+00
1.2052378325e+00
1.2050934830e+00
1.2049482679e+00
1.2048119409e+00
1.2046912250e+00
1.2045899425e+00
1.2045090147e+00
1.2044473413e+00
1.2044023799e+00
1.2043710153e+00
1.2043500378e+00
1.2043365897e+00
1.2043283154e+00
1.2043234318e+00
1.2043206645e+00
1.2043191600e+00
1.2043183749e+00
1.2043179818e+00
1.2043177930e+00
1.2043177061e+00
1.2043176678e+00
1.2043176515e+00
1.2043176450e+00
1.2043176424e+00
1.2043176415e+00
1.2043176412e+00
1.2043176411e+00
1.2043176410e+00
1.2043176410e+00
1.2043176410e+00
1.2043176410e+00
1.2043176410e+00
1.2043176410e+00
1.2043176410e+00
1.2043176410e+00
1.2043176410e+00
1.2043176410e+00
1.2043176410e+00
1.2043176410e+00
1.2043176410e+00
1.1975430309e+00
1.1977960861e+00
1.1980143911e+00
1.1983239519e+00
1.1987099006e+00
1.1991546153e+00
1.1996385214e+00
1.2001421316e+00
1.2006466907e+00
1.2011359291e+00
1.2015962048e+00
1.2020175714e+00
1.2023933254e+00
1.2027203409e+00
1.2029982005e+00
1.2032290323e+00
1.2034165345e+00
1.2035656418e+00
1.2036817151e+00
1.2037702815e+00
1.2038365148e+00
1.2038851464e+00
1.2039202198e+00
1.2039451493e+00
1.2039626574e+00
1.2039749084e+00
1.2039835306e+00
1.2039897596e+00
1.2039944767e+00
1.2039983249e+00
1.2040017333e+00
1.2040049959e+00
1.2040082784e+00
1.2040116709e+00
1.2040151940e+00
1.2040188522e+00
1.2040226726e+00
1.2040267989e+00
1.2040315963e+00
1.2040378102e+00
1.2040467246e+00
1.2040603272e+00
1.2040813907e+00
1.2041134564e+00
1.2041605914e+00
1.2042269670e+00
1.2043161288e+00
1.2044302018e+00
1.2045689205e+00
1.2047289888e+00
1.2049035994e+00
1.2050827348e+00
1.2052538718e+00
1.2054035020e+00
1.2055188851e+00
1.2055899568e+00
1.2056109677e+00
1.2055812725e+00
1.2055055999e+00
1.2053929120e+00
1.2052552431e+00
1.2051054093e+00
1.2049556316e+00
1.2048156852e+00
1.2046925015e+00
1.2045896327e+00
1.2045079250e+00
1.2044459591e+00
1.2044010583e+00
1.2043698968e+00
1.2043491859e+00
1.2043359821e+00
1.2043279114e+00
1.2043231766e+00
1.2043205123e+00
1.2043190734e+00
1.2043183280e+00
1.2043179576e+00
1.2043177811e+00
1.2043177005e+00
1.2043176652e+00
1.2043176505e+00
1.2043176445e+00
1.2043176423e+00
1.2043176414e+00
1.2043176411e+00
1.2043176410e+00
1.2043176410e+00
1.2043176410e+00
1.2043176410e+00
1.2043176410e+00
1.2043176410e+00
1.2043176410e+00
1.2043176410e+00
1.2043176410e+00
1.2043176410e+00
1.2043176410e+00
1.2043176410e+00
1.2043176410e+00
1.2043176410e+00
1.1986365196e+00
1.1988706934e+00
1.1990525542e+00
1.1993095890e+00
1.1996297053e+00
1.1999980671e+00
1.2003987584e+00
1.2008153872e+00
1.2012327498e+00
1.2016371389e+00
1.2020175714e+00
1.2023656123e+00
1.2026759757e+00
1.2029459128e+00
1.2031752792e+00
1.2033657094e+00
1.2035204043e+00
1.2036433481e+00
1.2037390671e+00
1.2038120566e+00
1.2038666524e+00
1.2039067075e+00
1.2039356007e+00
1.2039561084e+00
1.2039705033e+00
1.2039805374e+00
1.2039875698e+00
1.2039925885e+00
1.2039963251e+00
1.2039992747e+00
1.2040017802e+00
1.2040040368e+00
1.2040061495e+00
1.2040081312e+00
1.2040099528e+00
1.2040115630e+00
1.2040129683e+00
1.2040143111e+00
1.2040160176e+00
1.2040189494e+00
1.2040246009e+00
1.2040352444e+00
1.2040540341e+00
1.2040849210e+00
1.2041324151e+00
1.2042010181e+00
1.2042945191e+00
1.2044149876e+00
1.2045619306e+00
1.2047314295e+00
1.2049159479e+00
1.2051044663e+00
1.2052835766e+00
1.2054389340e+00
1.2055572883e+00
1.2056284463e+00
1.2056468172e+00
1.2056124302e+00
1.2055306308e+00
1.2054114201e+00
1.2052673833e+00
1.2051121508e+00
1.2049580581e+00
1.2048151928e+00
1.2046901995e+00
1.2045865651e+00
1.2045047295e+00
1.2044431018e+00
1.2043987107e+00
1.2043681212e+00
1.2043479166e+00
1.2043351296e+00