# vtk DataFile Version 2.0
Blank
ASCII
DATASET STRUCTURED_GRID
DIMENSIONS 101 101 2
POINTS 20402 float
0.0000000000e+00 0.0000000000e+00 0.0000000000e+00
1.0000000000e-02 0.0000000000e+00 0.0000000000e+00
2.0000000000e-02 0.0000000000e+00 0.0000000000e+00
3.0000000000e-02 0.0000000000e+00 0.0000000000e+00
4.0000000000e-02 0.0000000000e+00 0.0000000000e+00
5.0000000000e-02 0.0000000000e+00 0.0000000000e+00
6.0000000000e-02 0.0000000000e+00 0.0000000000e+00
7.0000000000e-02 0.0000000000e+00 0.0000000000e+00
8.0000000000e-02 0.0000000000e+00 0.0000000000e+00
9.0000000000e-02 0.0000000000e+00 0.0000000000e+00
1.0000000000e-01 0.0000000000e+00 0.0000000000e+00
1.1000000000e-01 0.0000000000e+00 0.0000000000e+00
1.2000000000e-01 0.0000000000e+00 0.0000000000e+00
1.3000000000e-01 0.0000000000e+00 0.0000000000e+00
1.4000000000e-01 0.0000000000e+00 0.0000000000e+00
1.5000000000e-01 0.0000000000e+00 0.0000000000e+00
1.6000000000e-01 0.0000000000e+00 0.0000000000e+00
1.7000000000e-01 0.0000000000e+00 0.0000000000e+00
1.8000000000e-01 0.0000000000e+00 0.0000000000e+00
1.9000000000e-01 0.0000000000e+00 0.0000000000e+00
2.0000000000e-01 0.0000000000e+00 0.0000000000e+00
2.1000000000e-01 0.0000000000e+00 0.0000000000e+00
2.2000000000e-01 0.0000000000e+00 0.0000000000e+00
2.3000000000e-01 0.0000000000e+00 0.0000000000e+00
2.4000000000e-01 0.0000000000e+00 0.0000000000e+00
2.5000000000e-01 0.0000000000e+00 0.0000000000e+00
2.6000000000e-01 0.0000000000e+00 0.0000000000e+00
2.7000000000e-01 0.0000000000e+00 0.0000000000e+00
2.8000000000e-01 0.0000000000e+00 0.0000000000e+00
2.9000000000e-01 0.0000000000e+00 0.0000000000e+00
3.0000000000e-01 0.0000000000e+00 0.0000000000e+00
3.1000000000e-01 0.0000000000e+00 0.0000000000e+00
3.2000000000e-01 0.0000000000e+00 0.0000000000e+00
3.3000000000e-01 0.0000000000e+00 0.0000000000e+00
3.4000000000e-01 0.0000000000e+00 0.0000000000e+00
3.5000000000e-01 0.0000000000e+00 0.0000000000e+00
3.6000000000e-01 0.0000000000e+00 0.0000000000e+00
3.7000000000e-01 0.0000000000e+00 0.0000000000e+00
3.8000000000e-01 0.0000000000e+00 0.0000000000e+00
3.9000000000e-01 0.0000000000e+00 0.0000000000e+00
4.0000000000e-01 0.0000000000e+00 0.0000000000e+00
4.1000000000e-01 0.0000000000e+00 0.0000000000e+00
4.2000000000e-01 0.0000000000e+00 0.0000000000e+00
4.3000000000e-01 0.0000000000e+00 0.0000000000e+00
4.4000000000e-01 0.0000000000e+00 0.0000000000e+00
4.5000000000e-01 0.0000000000e+00 0.0000000000e+00
4.6000000000e-01 0.0000000000e+00 0.0000000000e+00
4.7000000000e-01 0.0000000000e+00 0.0000000000e+00
4.8000000000e-01 0.0000000000e+00 0.0000000000e+00
4.9000000000e-01 0.0000000000e+00 0.0000000000e+00
5.0000000000e-01 0.0000000000e+00 0.0000000000e+00
5.1000000000e-01 0.0000000000e+00 0.0000000000e+00
5.2000000000e-01 0.0000000000e+00 0.0000000000e+00
5.3000000000e-01 0.0000000000e+00 0.0000000000e+00
5.4000000000e-01 0.0000000000e+00 0.0000000000e+00
5.5000000000e-01 0.0000000000e+00 0.0000000000e+00
5.6000000000e-01 0.0000000000e+00 0.0000000000e+00
5.7000000000e-01 0.0000000000e+00 0.0000000000e+00
5.8000000000e-01 0.0000000000e+00 0.0000000000e+00
5.9000000000e-01 0.0000000000e+00 0.0000000000e+00
6.0000000000e-01 0.0000000000e+00 0.0000000000e+00
6.1000000000e-01 0.0000000000e+00 0.0000000000e+00
6.2000000000e-01 0.0000000000e+00 0.0000000000e+00
6.3000000000e-01 0.0000000000e+00 0.0000000000e+00
6.4000000000e-01 0.0000000000e+00 0.0000000000e+00
6.5000000000e-01 0.0000000000e+00 0.0000000000e+00
6.6000000000e-01 0.0000000000e+00 0.0000000000e+00
6.7000000000e-01 0.0000000000e+00 0.0000000000e+00
6.8000000000e-01 0.0000000000e+00 0.0000000000e+00
6.9000000000e-01 0.0000000000e+00 0.0000000000e+00
7.0000000000e-01 0.0000000000e+00 0.0000000000e+00
7.1000000000e-01 0.0000000000e+00 0.0000000000e+00
7.2000000000e-01 0.0000000000e+00 0.0000000000e+00
7.3000000000e-01 0.0000000000e+00 0.0000000000e+00
7.4000000000e-01 0.0000000000e+00 0.0000000000e+00
7.5000000000e-01 0.0000000000e+00 0.0000000000e+00
7.6000000000e-01 0.0000000000e+00 0.0000000000e+00
7.7000000000e-01 0.0000000000e+00 0.0000000000e+00
7.8000000000e-01 0.0000000000e+00 0.0000000000e+00
7.9000000000e-01 0.0000000000e+00 0.0000000000e+00
8.0000000000e-01 0.0000000000e+00 0.0000000000e+00
8.1000000000e-01 0.0000000000e+00 0.0000000000e+00
8.2000000000e-01 0.0000000000e+00 0.0000000000e+00
8.3000000000e-01 0.0000000000e+00 0.0000000000e+00
8.4000000000e-01 0.0000000000e+00 0.0000000000e+00
8.5000000000e-01 0.0000000000e+00 0.0000000000e+00
8.6000000000e-01 0.0000000000e+00 0.0000000000e+00
8.7000000000e-01 0.0000000000e+00 0.0000000000e+00
8.8000000000e-01 0.0000000000e+00 0.0000000000e+00
8.9000000000e-01 0.0000000000e+00 0.0000000000e+00
9.0000000000e-01 0.0000000000e+00 0.0000000000e+00
9.1000000000e-01 0.0000000000e+00 0.0000000000e+00
9.2000000000e-01 0.0000000000e+00 0.0000000000e+00
9.3000000000e-01 0.0000000000e+00 0.0000000000e+00
9.4000000000e-01 0.0000000000e+00 0.0000000000e+00
9.5000000000e-01 0.0000000000e+00 0.0000000000e+00
9.6000000000e-01 0.0000000000e+00 0.0000000000e+00
9.7000000000e-01 0.0000000000e+00 0.0000000000e+00
9.8000000000e-01 0.0000000000e+00 0.0000000000e+00
9.9000000000e-01 0.0000000000e+00 0.0000000000e+00
1.0000000000e+00 0.0000000000e+00 0.0000000000e+00
0.0000000000e+00 1.0000000000e-02 0.0000000000e+00
1.0000000000e-02 1.0000000000e-02 0.0000000000e+00
2.0000000000e-02 1.0000000000e-02 0.0000000000e+00
3.0000000000e-02 1.0000000000e-02 0.0000000000e+00
4.0000000000e-02 1.0000000000e-02 0.0000000000e+00
5.0000000000e-02 1.0000000000e-02 0.0000000000e+00
6.0000000000e-02 1.0000000000e-02 0.0000000000e+00
7.0000000000e-02 1.0000000000e-02 0.0000000000e+00
8.0000000000e-02 1.0000000000e-02 0.0000000000e+00
9.0000000000e-02 1.0000000000e-02 0.0000000000e+00
1.0000000000e-01 1.0000000000e-02 0.0000000000e+00
1.1000000000e-01 1.0000000000e-02 0.0000000000e+00
1.2000000000e-01 1.0000000000e-02 0.0000000000e+00
1.3000000000e-01 1.0000000000e-02 0.0000000000e+00
1.4000000000e-01 1.0000000000e-02 0.0000000000e+00
1.5000000000e-01 1.0000000000e-02 0.0000000000e+00
1.6000000000e-01 1.0000000000e-02 0.0000000000e+00
1.7000000000e-01 1.0000000000e-02 0.0000000000e+00
1.8000000000e-01 1.0000000000e-02 0.0000000000e+00
1.9000000000e-01 1.0000000000e-02 0.0000000000e+00
2.0000000000e-01 1.0000000000e-02 0.0000000000e+00
2.1000000000e-01 1.0000000000e-02 0.0000000000e+00
2.2000000000e-01 1.0000000000e-02 0.0000000000e+00
2.3000000000e-01 1.0000000000e-02 0.0000000000e+00
2.4000000000e-01 1.0000000000e-02 0.0000000000e+00
2.5000000000e-01 1.0000000000e-02 0.0000000000e+00
2.6000000000e-01 1.0000000000e-02 0.0000000000e+00
2.7000000000e-01 1.0000000000e-02 0.0000000000e+00
2.8000000000e-01 1.0000000000e-02 0.0000000000e+00
2.9000000000e-01 1.0000000000e-02 0.0000000000e+00
3.0000000000e-01 1.0000000000e-02 0.0000000000e+00
3.1000000000e-01 1.0000000000e-02 0.0000000000e+00
3.2000000000e-01 1.0000000000e-02 0.0000000000e+00
3.3000000000e-01 1.0000000000e-02 0.0000000000e+00
3.4000000000e-01 1.0000000000e-02 0.0000000000e+00
3.5000000000e-01 1.0000000000e-02 0.0000000000e+00
3.6000000000e-01 1.0000000000e-02 0.0000000000e+00
3.7000000000e-01 1.0000000000e-02 0.0000000000e+00
3.8000000000e-01 1.0000000000e-02 0.0000000000e+00
3.9000000000e-01 1.0000000000e-02 0.0000000000e+00
4.0000000000e-01 1.0000000000e-02 0.0000000000e+00
4.1000000000e-01 1.0000000000e-02 0.0000000000e+00
4.2000000000e-01 1.0000000000e-02 0.0000000000e+00
4.3000000000e-01 1.0000000000e-02 0.0000000000e+00
4.4000000000e-01 1.0000000000e-02 0.0000000000e+00
4.5000000000e-01 1.0000000000e-02 0.0000000000e+00
4.6000000000e-01 1.0000000000e-02 0.0000000000e+00
4.7000000000e-01 1.0000000000e-02 0.0000000000e+00
4.8000000000e-01 1.0000000000e-02 0.0000000000e+00
4.9000000000e-01 1.0000000000e-02 0.0000000000e+00
5.0000000000e-01 1.0000000000e-02 0.0000000000e+00
5.1000000000e-01 1.0000000000e-02 0.0000000000e+00
5.2000000000e-01 1.0000000000e-02 0.0000000000e+00
5.3000000000e-01 1.0000000000e-02 0.0000000000e+00
5.4000000000e-01 1.0000000000e-02 0.0000000000e+00
5.5000000000e-01 1.0000000000e-02 0.0000000000e+00
5.6000000000e-01 1.0000000000e-02 0.0000000000e+00
5.7000000000e-01 1.0000000000e-02 0.0000000000e+00
5.8000000000e-01 1.0000000000e-02 0.0000000000e+00
5.9000000000e-01 1.0000000000e-02 0.0000000000e+00
6.0000000000e-01 1.0000000000e-02 0.0000000000e+00
6.1000000000e-01 1.0000000000e-02 0.0000000000e+00
6.2000000000e-01 1.0000000000e-02 0.0000000000e+00
6.3000000000e-01 1.0000000000e-02 0.0000000000e+00
6.4000000000e-01 1.0000000000e-02 0.0000000000e+00
6.5000000000e-01 1.0000000000e-02 0.0000000000e+00
6.6000000000e-01 1.0000000000e-02 0.0000000000e+00
6.7000000000e-01 1.0000000000e-02 0.0000000000e+00
6.8000000000e-01 1.0000000000e-02 0.0000000000e+00
6.9000000000e-01 1.0000000000e-02 0.0000000000e+00
7.0000000000e-01 1.0000000000e-02 0.0000000000e+00
7.1000000000e-01 1.0000000000e-02 0.0000000000e+00
7.2000000000e-01 1.0000000000e-02 0.0000000000e+00
7.3000000000e-01 1.0000000000e-02 0.0000000000e+00
7.4000000000e-01 1.0000000000e-02 0.0000000000e+00
7.5000000000e-01 1.0000000000e-02 0.0000000000e+00
7.6000000000e-01 1.0000000000e-02 0.0000000000e+00
7.7000000000e-01 1.0000000000e-02 0.0000000000e+00
7.8000000000e-01 1.0000000000e-02 0.0000000000e+00
7.9000000000e-01 1.0000000000e-02 0.0000000000e+00
8.0000000000e-01 1.0000000000e-02 0.0000000000e+00
8.1000000000e-01 1.0000000000e-02 0.0000000000e+00
8.2000000000e-01 1.0000000000e-02 0.0000000000e+00
8.3000000000e-01 1.0000000000e-02 0.0000000000e+00
8.4000000000e-01 1.0000000000e-02 0.0000000000e+00
8.5000000000e-01 1.0000000000e-02 0.0000000000e+00
8.6000000000e-01 1.0000000000e-02 0.0000000000e+00
8.7000000000e-01 1.0000000000e-02 0.0000000000e+00
8.8000000000e-01 1.0000000000e-02 0.0000000000e+00
8.9000000000e-01 1.0000000000e-02 0.0000000000e+00
9.0000000000e-01 1.0000000000e-02 0.0000000000e+00
9.1000000000e-01 1.0000000000e-02 0.0000000000e+00
9.2000000000e-01 1.0000000000e-02 0.0000000000e+00
[...]
CELL_DATA 10000

SCALARS massDensity float
LOOKUP_TABLE default
1.2001346250e+00
1.2001092302e+00
1.2001621449e+00
1.2002315553e+00
1.2003173227e+00
1.2004189735e+00
1.2005356781e+00
1.2006662910e+00
1.2008094139e+00
1.2009634514e+00
1.2011266702e+00
1.2012972476e+00
1.2014733220e+00
1.2016530327e+00
1.2018345624e+00
1.2020161681e+00
1.2021962140e+00
1.2023731933e+00
1.2025457506e+00
1.2027126936e+00
1.2028730055e+00
1.2030258465e+00
1.2031705567e+00
1.2033066493e+00
1.2034338050e+00
1.2035518595e+00
1.2036607912e+00
1.2037607051e+00
1.2038518175e+00
1.2039344377e+00
1.2040089519e+00
1.2040758055e+00
1.2041354881e+00
1.2041885175e+00
1.2042354274e+00
1.2042767543e+00
1.2043130282e+00
1.2043447634e+00
1.2043724518e+00
1.2043965573e+00
1.2044175122e+00
1.2044357143e+00
1.2044515261e+00
1.2044652737e+00
1.2044772478e+00
1.2044877045e+00
1.2044968677e+00
1.2045049300e+00
1.2045120561e+00
1.2045183848e+00
1.2045240314e+00
1.2045290907e+00
1.2045336388e+00
1.2045377361e+00
1.2045414290e+00
1.2045447521e+00
1.2045477300e+00
1.2045503789e+00
1.2045527084e+00
1.2045547222e+00
1.2045564201e+00
1.2045577979e+00
1.2045588495e+00
1.2045595667e+00
1.2045599405e+00
1.2045599612e+00
1.2045596194e+00
1.2045589056e+00
1.2045578117e+00
1.2045563301e+00
1.2045544549e+00
1.2045521816e+00
1.2045495077e+00
1.2045464319e+00
1.2045429558e+00
1.2045390823e+00
1.2045348171e+00
1.2045301675e+00
1.2045251436e+00
1.2045197575e+00
1.2045140236e+00
1.2045079583e+00
1.2045015805e+00
1.2044949109e+00
1.2044879722e+00
1.2044807887e+00
1.2044733865e+00
1.2044657922e+00
1.2044580339e+00
1.2044501389e+00
1.2044421346e+00
1.2044340456e+00
1.2044258935e+00
1.2044176931e+00
1.2044094505e+00
1.2044011580e+00
1.2043927929e+00
1.2043843197e+00
1.2043757177e+00
1.2043768370e+00
1.2001092302e+00
1.2000715461e+00
1.2001179537e+00
1.2001831561e+00
1.2002662807e+00
1.2003663523e+00
1.2004822044e+00
1.2006124698e+00
1.2007555953e+00
1.2009098797e+00
1.2010735097e+00
1.2012446057e+00
1.2014212587e+00
1.2016015745e+00
1.2017837057e+00
1.2019658889e+00
1.2021464692e+00
1.2023239287e+00
1.2024969006e+00
1.2026641882e+00
1.2028247692e+00
1.2029778039e+00
1.2031226311e+00
1.2032587669e+00
1.2033858935e+00
1.2035038508e+00
1.2036126200e+00
1.2037123111e+00
1.2038031436e+00
1.2038854315e+00
1.2039595643e+00
1.2040259921e+00
1.2040852072e+00
1.2041377319e+00
1.2041841026e+00
1.2042248599e+00
1.2042605368e+00
1.2042916513e+00
1.2043186985e+00
1.2043421463e+00
1.2043624305e+00
1.2043799532e+00
1.2043950807e+00
1.2044081435e+00
1.2044194367e+00
1.2044292215e+00
1.2044377262e+00
1.2044451489e+00
1.2044516591e+00
1.2044574010e+00
1.2044624955e+00
1.2044670427e+00
1.2044711242e+00
1.2044748059e+00
1.2044781397e+00
1.2044811655e+00
1.2044839130e+00
1.2044864037e+00
1.2044886518e+00
1.2044906658e+00
1.2044924494e+00
1.2044940027e+00
1.2044953229e+00
1.2044964050e+00
1.2044972426e+00
1.2044978282e+00
1.2044981538e+00
1.2044982114e+00
1.2044979928e+00
1.2044974907e+00
1.2044966982e+00
1.2044956096e+00
1.2044942201e+00
1.2044925263e+00
1.2044905258e+00
1.2044882183e+00
1.2044856045e+00
1.2044826871e+00
1.2044794701e+00
1.2044759599e+00
1.2044721637e+00
1.2044680914e+00
1.2044637539e+00
1.2044591641e+00
1.2044543363e+00
1.2044492864e+00
1.2044440313e+00
1.2044385892e+00
1.2044329786e+00
1.2044272187e+00
1.2044213277e+00
1.2044153232e+00
1.2044092199e+00
1.2044030300e+00
1.2043967602e+00
1.2043904121e+00
1.2043839820e+00
1.2043774663e+00
1.2043708742e+00
1.2043754693e+00
1.2001621449e+00
1.2001179537e+00
1.2001612052e+00
1.2002239264e+00
1.2003050024e+00
1.2004032683e+00
1.2005174325e+00
1.2006460453e+00
1.2007875094e+00
1.2009400976e+00
1.2011019902e+00
1.2012713059e+00
1.2014461455e+00
1.2016246228e+00
1.2018049055e+00
1.2019852416e+00
1.2021639922e+00
1.2023396501e+00
1.2025108635e+00
1.2026764442e+00
1.2028353819e+00
1.2029868430e+00
1.2031301748e+00
1.2032648963e+00
1.2033906949e+00
1.2035074105e+00
1.2036150265e+00
1.2037136506e+00
1.2038035016e+00
1.2038848897e+00
1.2039582021e+00
1.2040238835e+00
1.2040824231e+00
1.2041343374e+00
1.2041801591e+00
1.2042204233e+00
1.2042556591e+00
1.2042863795e+00
1.2043130762e+00
1.2043362128e+00
1.2043562222e+00
1.2043735031e+00
1.2043884195e+00
1.2044012995e+00
1.2044124366e+00
1.2044220902e+00
1.2044304877e+00
1.2044378260e+00
1.2044442744e+00
1.2044499765e+00
1.2044550530e+00
1.2044596041e+00
1.2044637115e+00
1.2044674413e+00
1.2044708455e+00
1.2044739646e+00
1.2044768286e+00
1.2044794592e+00
1.2044818709e+00
1.2044840723e+00
1.2044860673e+00
1.2044878560e+00
1.2044894354e+00
1.2044908003e+00
1.2044919438e+00
1.2044928579e+00
1.2044935337e+00
1.2044939621e+00
1.2044941342e+00
1.2044940410e+00
1.2044936744e+00
1.2044930268e+00
1.2044920915e+00
1.2044908631e+00
1.2044893373e+00
1.2044875110e+00
1.2044853829e+00
1.2044829528e+00
1.2044802225e+00
1.2044771949e+00
1.2044738754e+00
1.2044702703e+00
1.2044663881e+00
1.2044622386e+00
1.2044578338e+00
1.2044531863e+00
1.2044483109e+00
1.2044432229e+00
1.2044379389e+00
1.2044324753e+00
1.2044268493e+00
1.2044210767e+00
1.2044151729e+00
1.2044091505e+00
1.2044030209e+00
1.2043967930e+00
1.2043904767e+00
1.2043840879e+00
1.2043776614e+00
1.2043844301e+00
1.2002315553e+00
1.2001831561e+00
1.2002239264e+00
1.2002842784e+00
1.2003630775e+00
1.2004591052e+00
1.2005710140e+00
1.2006973187e+00
1.2008363973e+00
1.2009865176e+00
1.2011458595e+00
1.2013125553e+00
1.2014847181e+00
1.2016604836e+00
1.2018380371e+00
1.2020156507e+00
1.2021917033e+00
1.2023647104e+00
1.2025333355e+00
1.2026964097e+00
1.2028529339e+00
1.2030020889e+00
1.2031432288e+00
1.2032758821e+00
1.2033997384e+00
1.2035146421e+00
1.2036205751e+00
1.2037176453e+00
1.2038060670e+00
1.2038861475e+00
1.2039582672e+00
1.2040228660e+00
1.2040804251e+00
1.2041314551e+00
1.2041764803e+00
1.2042160296e+00
1.2042506243e+00
1.2042807714e+00
1.2043069556e+00
1.2043296353e+00
1.2043492375e+00
1.2043661567e+00
1.2043807522e+00
1.2043933490e+00
1.2044042371e+00
1.2044136737e+00
1.2044218839e+00
1.2044290632e+00
1.2044353795e+00
1.2044409759e+00
1.2044459724e+00
1.2044504688e+00
1.2044545472e+00
1.2044582737e+00
1.2044617007e+00
1.2044648689e+00
1.2044678090e+00
1.2044705431e+00
1.2044730862e+00
1.2044754473e+00
1.2044776308e+00
1.2044796370e+00
1.2044814629e+00
1.2044831035e+00
1.2044845515e+00
1.2044857986e+00
1.2044868355e+00
1.2044876522e+00
1.2044882387e+00
1.2044885849e+00
1.2044886812e+00
1.2044885182e+00
1.2044880876e+00
1.2044873817e+00
1.2044863938e+00
1.2044851185e+00
1.2044835515e+00
1.2044816899e+00
1.2044795323e+00
1.2044770789e+00
1.2044743313e+00
1.2044712929e+00
1.2044679685e+00
1.2044643648e+00
1.2044604901e+00
1.2044563540e+00
1.2044519678e+00
1.2044473438e+00
1.2044424955e+00
1.2044374371e+00
1.2044321831e+00
1.2044267482e+00
1.2044211464e+00
1.2044153917e+00
1.2044094968e+00
1.2044034755e+00
1.2043973435e+00
1.2043911234e+00
1.2043848507e+00
1.2043939615e+00
1.2003173227e+00
1.2002662807e+00
1.2003050024e+00
1.2003630775e+00
1.2004394381e+00
1.2005328775e+00
1.2006420489e+00
1.2007654606e+00
1.2009014967e+00
1.2010484310e+00
1.2012044633e+00
1.2013677438e+00
1.2015364147e+00
1.2017086358e+00
1.2018826250e+00
1.2020566794e+00
1.2022292096e+00
1.2023987538e+00
1.2025640028e+00
1.2027238058e+00
1.2028771854e+00
1.2030233346e+00
1.2031616224e+00
1.2032915834e+00
1.2034129156e+00
1.2035254641e+00
1.2036292130e+00
1.2037242662e+00
1.2038108359e+00
1.2038892217e+00
1.2039597984e+00
1.2040229962e+00
1.2040792887e+00
1.2041291757e+00
1.2041731730e+00
1.2042117990e+00
1.2042455663e+00
1.2042749722e+00
1.2043004936e+00
1.2043225805e+00
1.2043416531e+00
1.2043580991e+00
1.2043722724e+00
1.2043844926e+00
1.2043950458e+00
1.2044041854e+00
1.2044121337e+00
1.2044190838e+00
1.2044252020e+00
1.2044306298e+00
1.2044354866e+00
1.2044398718e+00
1.2044438671e+00
1.2044475389e+00
1.2044509399e+00
1.2044541114e+00
1.2044570846e+00
1.2044598822e+00
1.2044625200e+00
1.2044650078e+00
1.2044673503e+00
1.2044695484e+00
1.2044715998e+00
1.2044734994e+00
1.2044752403e+00
1.2044768139e+00
1.2044782104e+00
1.2044794197e+00
1.2044804306e+00
1.2044812322e+00
1.2044818133e+00
1.2044821634e+00
1.2044822718e+00
1.2044821291e+00
1.2044817259e+00
1.2044810545e+00
1.2044801076e+00
1.2044788793e+00
1.2044773649e+00
1.2044755611e+00
1.2044734660e+00
1.2044710792e+00
1.2044684019e+00
1.2044654369e+00
1.2044621884e+00
1.2044586623e+00
1.2044548662e+00
1.2044508086e+00
1.2044464997e+00
1.2044419504e+00
1.2044371725e+00
1.2044321784e+00
1.2044269810e+00
1.2044215931e+00
1.2044160285e+00
1.2044103020e+00
1.2044044313e+00
1.2043984392e+00
1.2043923565e+00
1.2044040277e+00
1.2004189735e+00
1.2003663523e+00
1.2004032683e+00
1.2004591052e+00
1.2005328775e+00
1.2006234284e+00
1.2007294362e+00
1.2008494359e+00
1.2009818306e+00
1.2011249242e+00
1.2012769423e+00
1.2014360725e+00
1.2016004882e+00
1.2017683906e+00
1.2019380304e+00
1.2021077455e+00
1.2022759773e+00
1.2024413007e+00
1.2026024321e+00
1.2027582507e+00
1.2029077981e+00
1.2030502892e+00
1.2031851045e+00
1.2033117923e+00
1.2034300547e+00
1.2035397428e+00
1.2036408385e+00
1.2037334454e+00
1.2038177683e+00
1.2038941014e+00
1.2039628090e+00
1.2040243125e+00
1.2040790730e+00
1.2041275798e+00
1.2041703358e+00
1.2042078481e+00
1.2042406172e+00
1.2042691297e+00
1.2042938514e+00
1.2043152229e+00
1.2043336551e+00
1.2043495278e+00
1.2043631874e+00
1.2043749475e+00
1.2043850885e+00
1.2043938593e+00
1.2044014783e+00
1.2044081357e+00
1.2044139952e+00
1.2044191968e+00
1.2044238586e+00
1.2044280791e+00
1.2044319400e+00
1.2044355074e+00
1.2044388346e+00
1.2044419632e+00
1.2044449253e+00
1.2044477442e+00
1.2044504367e+00
1.2044530133e+00
1.2044554799e+00
1.2044578380e+00
1.2044600859e+00
1.2044622190e+00
1.2044642310e+00
1.2044661132e+00
1.2044678561e+00
1.2044694488e+00
1.2044708801e+00
1.2044721379e+00
1.2044732102e+00
1.2044740847e+00
1.2044747495e+00
1.2044751926e+00
1.2044754030e+00
1.2044753699e+00
1.2044750834e+00
1.2044745344e+00
1.2044737150e+00
1.2044726181e+00
1.2044712383e+00
1.2044695711e+00
1.2044676137e+00
1.2044653646e+00
1.2044628241e+00
1.2044599936e+00
1.2044568764e+00
1.2044534773e+00
1.2044498022e+00
1.2044458586e+00
1.2044416549e+00
1.2044372007e+00
1.2044325065e+00
1.2044275837e+00
1.2044224450e+00
1.2044171049e+00
1.2044115804e+00
1.2044058924e+00
1.2044000664e+00
1.2044145296e+00
1.2005356781e+00
1.2004822044e+00
1.2005174325e+00
1.2005710140e+00
1.2006420489e+00
1.2007294362e+00
1.2008319042e+00
1.2009480242e+00
1.2010762425e+00
1.2012148988e+00
1.2013622656e+00
1.2015165698e+00
1.2016760350e+00
1.2018389035e+00
1.2020034762e+00
1.2021681303e+00
1.2023313534e+00
1.2024917545e+00
1.2026480895e+00
1.2027992641e+00
1.2029443501e+00
1.2030825805e+00
1.2032133564e+00
1.2033362351e+00
1.2034509297e+00
1.2035572926e+00
1.2036553083e+00
1.2037450747e+00
1.2038267925e+00
1.2039007457e+00
1.2039672894e+00
1.2040268316e+00
1.2040798215e+00
1.2041267335e+00
1.2041680574e+00
1.2042042853e+00
1.2042359047e+00
1.2042633883e+00
1.2042871900e+00
1.2043077382e+00
1.2043254334e+00
1.2043406454e+00
1.2043537123e+00
1.2043649397e+00
1.2043746018e+00
1.2043829416e+00
1.2043901729e+00
1.2043964821e+00
1.2044020301e+00
1.2044069545e+00
1.2044113716e+00
1.2044153794e+00
1.2044190584e+00
1.2044224752e+00
1.2044256829e+00
1.2044287239e+00
1.2044316308e+00
1.2044344281e+00
1.2044371333e+00
1.2044397583e+00
1.2044423096e+00
1.2044447901e+00
1.2044471987e+00
1.2044495321e+00
1.2044517841e+00
1.2044539469e+00
1.2044560109e+00
1.2044579656e+00
1.2044597991e+00
1.2044614992e+00
1.2044630526e+00
1.2044644463e+00
1.2044656665e+00
1.2044667001e+00
1.2044675333e+00
1.2044681534e+00
1.2044685475e+00
1.2044687039e+00
1.2044686108e+00
1.2044682583e+00
1.2044676365e+00
1.2044667375e+00
1.2044655538e+00
1.2044640802e+00
1.2044623120e+00
1.2044602466e+00
1.2044578826e+00
1.2044552205e+00
1.2044522619e+00
1.2044490101e+00
1.2044454699e+00
1.2044416474e+00
1.2044375502e+00
1.2044331871e+00
1.2044285689e+00
1.2044237083e+00
1.2044186205e+00
1.2044133238e+00
1.2044078395e+00
1.2044253077e+00
1.2006662910e+00
1.2006124698e+00
1.2006460453e+00
1.2006973187e+00
1.2007654606e+00
1.2008494359e+00
1.2009480242e+00
1.2010598528e+00
1.2011834145e+00
1.2013171057e+00
1.2014592464e+00
1.2016081227e+00
1.2017620077e+00
1.2019192029e+00
1.2020780572e+00
1.2022370037e+00
1.2023945731e+00
1.2025494234e+00
1.2027003456e+00
1.2028462851e+00
1.2029863394e+00
1.2031197698e+00
1.2032459930e+00
1.2033645839e+00
1.2034752612e+00
1.2035778845e+00
1.2036724358e+00
1.2037590115e+00
1.2038378031e+00
1.2039090868e+00
1.2039732037e+00
1.2040305498e+00
1.2040815579e+00
1.2041266877e+00
1.2041664120e+00
1.2042012079e+00
1.2042315461e+00
1.2042578851e+00
1.2042806636e+00
1.2043002973e+00
1.2043171740e+00
1.2043316526e+00
1.2043440608e+00
1.2043546958e+00
1.2043638238e+00
1.2043716813e+00
1.2043784768e+00
1.2043843920e+00
1.2043895842e+00
1.2043941882e+00
1.2043983186e+00
1.2044020715e+00
1.2044055273e+00
1.2044087515e+00
1.2044117981e+00
1.2044147094e+00
1.2044175190e+00
1.2044202522e+00
1.2044229280e+00
1.2044255588e+00
1.2044281531e+00
1.2044307142e+00
1.2044332430e+00
1.2044357364e+00
1.2044381899e+00
1.2044405957e+00
1.2044429455e+00
1.2044452285e+00
1.2044474334e+00
1.2044495471e+00
1.2044515567e+00
1.2044534476e+00
1.2044552055e+00
1.2044568152e+00
1.2044582618e+00
1.2044595299e+00
1.2044606047e+00
1.2044614711e+00
1.2044621151e+00
1.2044625226e+00
1.2044626808e+00
1.2044625773e+00
1.2044622012e+00
1.2044615422e+00
1.2044605919e+00
1.2044593428e+00
1.2044577891e+00
1.2044559265e+00
1.2044537524e+00
1.2044512655e+00
1.2044484666e+00
1.2044453577e+00
1.2044419430e+00
1.2044382282e+00
1.2044342212e+00
1.2044299320e+00
1.2044253733e+00
1.2044205605e+00
1.2044155114e+00
1.2044361578e+00
1.2008094139e+00
1.2007555953e+00
1.2007875094e+00
1.2008363973e+00
1.2009014967e+00
1.2009818306e+00
1.2010762425e+00
1.2011834145e+00
1.2013019041e+00
1.2014301630e+00
1.2015665785e+00
1.2017094935e+00
1.2018572493e+00
1.2020082034e+00
1.2021607703e+00
1.2023134347e+00
1.2024647864e+00
1.2026135275e+00
1.2027584983e+00
1.2028986783e+00
1.2030332026e+00
1.2031613555e+00
1.2032825786e+00
1.2033964587e+00
1.2035027277e+00
1.2036012467e+00
1.2036920004e+00
1.2037750784e+00
1.2038506668e+00
1.2039190285e+00
1.2039804934e+00
1.2040354402e+00
1.2040842868e+00
1.2041274741e+00
1.2041654582e+00
1.2041986972e+00
1.2042276453e+00
1.2042527435e+00
1.2042744151e+00
1.2042930602e+00
1.2043090533e+00
1.2043227405e+00
1.2043344386e+00
1.2043444344e+00
1.2043529856e+00
1.2043603214e+00
1.2043666438e+00
1.2043721293e+00
1.2043769311e+00
1.2043811807e+00
1.2043849901e+00
1.2043884540e+00
1.2043916512e+00
1.2043946474e+00
1.2043974958e+00
1.2044002397e+00
1.2044029129e+00
1.2044055422e+00
1.2044081470e+00
1.2044107417e+00
1.2044133354e+00
1.2044159337e+00
1.2044185377e+00
1.2044211467e+00
1.2044237563e+00
1.2044263608e+00
1.2044289517e+00
1.2044315197e+00
1.2044340532e+00
1.2044365400e+00
1.2044389662e+00
1.2044413176e+00
1.2044435785e+00
1.2044457333e+00
1.2044477649e+00
1.2044496572e+00
1.2044513923e+00
1.2044529537e+00
1.2044543238e+00
1.2044554863e+00
1.2044564243e+00
1.2044571227e+00
1.2044575658e+00
1.2044577402e+00
1.2044576324e+00
1.2044572312e+00
1.2044565256e+00
1.2044555074e+00
1.2044541687e+00
1.2044525043e+00
1.2044505101e+00
1.2044481843e+00
1.2044455268e+00
1.2044425397e+00
1.2044392274e+00
1.2044355968e+00
1.2044316572e+00
1.2044274211e+00
1.2044229030e+00
1.2044468457e+00
1.2009634514e+00
1.2009098797e+00
1.2009400976e+00
1.2009865176e+00
1.2010484310e+00
1.2011249242e+00
1.2012148988e+00
1.2013171057e+00
1.2014301630e+00
1.2015525956e+00
1.2016828540e+00
1.2018193567e+00
1.2019605080e+00
1.2021047400e+00
1.2022505267e+00
1.2023964217e+00
1.2025410676e+00
1.2026832258e+00
1.2028217796e+00
1.2029557557e+00
1.2030843203e+00
1.2032067915e+00
1.2033226297e+00
1.2034314421e+00
1.2035329676e+00
1.2036270755e+00
1.2037137475e+00
1.2037930711e+00
1.2038652213e+00
1.2039304515e+00
1.2039890749e+00
1.2040414554e+00
1.2040879913e+00
1.2041291059e+00
1.2041652346e+00
1.2041968174e+00
1.2042242884e+00
1.2042480708e+00
1.2042685702e+00
1.2042861708e+00
1.2043012315e+00
1.2043140851e+00
1.2043250356e+00
1.2043343591e+00
1.2043423038e+00
1.2043490902e+00
1.2043549135e+00
1.2043599444e+00
1.2043643313e+00
1.2043682016e+00
1.2043716648e+00
1.2043748132e+00
1.2043777246e+00
1.2043804634e+00
1.2043830832e+00
1.2043856268e+00
1.2043881294e+00
1.2043906178e+00
1.2043931133e+00
1.2043956309e+00
1.2043981818e+00
1.2044007722e+00
1.2044034058e+00
1.2044060821e+00
1.2044087992e+00
1.2044115516e+00
1.2044143330e+00
1.2044171340e+00
1.2044199446e+00
1.2044227524e+00
1.2044255445e+00
1.2044283059e+00
1.2044310214e+00
1.2044336739e+00
1.2044362465e+00
1.2044387205e+00
1.2044410779e+00
1.2044432989e+00
1.2044453649e+00
1.2044472560e+00
1.2044489536e+00
1.2044504381e+00
1.2044516917e+00
1.2044526961e+00
1.2044534350e+00
1.2044538918e+00
1.2044540526e+00
1.2044539034e+00
1.2044534330e+00
1.2044526307e+00
1.2044514886e+00
1.2044500000e+00
1.2044481609e+00
1.2044459689e+00
1.2044434247e+00
1.2044405313e+00
1.2044372945e+00
1.2044337232e+00
1.2044298285e+00
1.2044571218e+00
1.2011266702e+00
1.2010735097e+00
1.2011019902e+00
1.2011458595e+00
1.2012044633e+00
1.2012769423e+00
1.2013622656e+00
1.2014592464e+00
1.2015665785e+00
1.2016828540e+00
1.2018066040e+00
1.2019363160e+00
1.2020704757e+00
1.2022075821e+00
1.2023461866e+00
1.2024849041e+00
1.2026224458e+00
1.2027576251e+00
1.2028893822e+00
1.2030167837e+00
1.2031390387e+00
1.2032554922e+00
1.2033656332e+00
1.2034690823e+00
1.2035655934e+00
1.2036550376e+00
1.2037373995e+00
1.2038127587e+00
1.2038812836e+00
1.2039432125e+00
1.2039988451e+00
1.2040485259e+00
1.2040926354e+00
1.2041315754e+00
1.2041657616e+00
1.2041956123e+00
1.2042215422e+00
1.2042439542e+00
1.2042632356e+00
1.2042797527e+00
1.2042938487e+00
1.2043058411e+00
1.2043160210e+00
1.2043246524e+00
1.2043319729e+00
1.2043381943e+00
1.2043435038e+00
1.2043480658e+00
1.2043520230e+00
1.2043554990e+00
1.2043585996e+00
1.2043614149e+00
1.2043640207e+00
1.2043664808e+00
1.2043688476e+00
1.2043711649e+00
1.2043734673e+00
1.2043757832e+00
1.2043781343e+00
1.2043805375e+00
1.2043830047e+00
1.2043855444e+00
1.2043881608e+00
1.2043908562e+00
1.2043936291e+00
1.2043964765e+00
1.2043993923e+00
1.2044023695e+00
1.2044053981e+00
1.2044084676e+00
1.2044115646e+00
1.2044146757e+00
1.2044177846e+00
1.2044208754e+00
1.2044239294e+00
1.2044269286e+00
1.2044298525e+00
1.2044326815e+00
1.2044353940e+00
1.2044379693e+00
1.2044403853e+00
1.2044426212e+00
1.2044446548e+00
1.2044464660e+00
1.2044480338e+00
1.2044493391e+00
1.2044503628e+00
1.2044510881e+00
1.2044514982e+00
1.2044515792e+00
1.2044513179e+00
1.2044507038e+00
1.2044497278e+00
1.2044483838e+00
1.2044466676e+00
1.2044445784e+00
1.2044421177e+00
1.2044392906e+00
1.2044361045e+00
1.2044667320e+00
1.2012972476e+00
1.2012446057e+00
1.2012713059e+00
1.2013125553e+00
1.2013677438e+00
1.2014360725e+00
1.2015165698e+00
1.2016081227e+00
1.2017094935e+00
1.2018193567e+00
1.2019363160e+00
1.2020589451e+00
1.2021858024e+00
1.2023154712e+00
1.2024465715e+00
1.2025777955e+00
1.2027079147e+00
1.2028358088e+00
1.2029604667e+00
1.2030810075e+00
1.2031966754e+00
1.2033068529e+00
1.2034110500e+00
1.2035089097e+00
1.2036001940e+00
1.2036847827e+00
1.2037626569e+00
1.2038338939e+00
1.2038986497e+00
1.2039571515e+00
1.2040096807e+00
1.2040565650e+00
1.2040981629e+00
1.2041348565e+00
1.2041670384e+00
1.2041951061e+00
1.2042194521e+00
1.2042404593e+00
1.2042584947e+00
1.2042739066e+00
1.2042870207e+00
1.2042981391e+00
1.2043075386e+00
1.2043154705e+00
1.2043221614e+00
1.2043278132e+00
1.2043326048e+00
1.2043366935e+00
1.2043402164e+00
1.2043432921e+00
1.2043460229e+00
1.2043484957e+00
1.2043507846e+00
1.2043529516e+00
1.2043550491e+00
1.2043571198e+00
1.2043591994e+00
1.2043613162e+00
1.2043634935e+00
1.2043657486e+00
1.2043680955e+00
1.2043705434e+00
1.2043730991e+00
1.2043757653e+00
1.2043785434e+00
1.2043814308e+00
1.2043844241e+00
1.2043875166e+00
1.2043907009e+00
1.2043939662e+00
1.2043973016e+00
1.2044006931e+00