# vtk DataFile Version 2.0
Blank
ASCII
DATASET STRUCTURED_GRID
DIMENSIONS 101 101 2
POINTS 20402 float
0.0000000000e+00 0.0000000000e+00 0.0000000000e+00
1.0000000000e-02 0.0000000000e+00 0.0000000000e+00
2.0000000000e-02 0.0000000000e+00 0.0000000000e+00
3.0000000000e-02 0.0000000000e+00 0.0000000000e+00
4.0000000000e-02 0.0000000000e+00 0.0000000000e+00
5.0000000000e-02 0.0000000000e+00 0.0000000000e+00
6.0000000000e-02 0.0000000000e+00 0.0000000000e+00
7.0000000000e-02 0.0000000000e+00 0.0000000000e+00
8.0000000000e-02 0.0000000000e+00 0.0000000000e+00
9.0000000000e-02 0.0000000000e+00 0.0000000000e+00
1.0000000000e-01 0.0000000000e+00 0.0000000000e+00
1.1000000000e-01 0.0000000000e+00 0.0000000000e+00
1.2000000000e-01 0.0000000000e+00 0.0000000000e+00
1.3000000000e-01 0.0000000000e+00 0.0000000000e+00
1.4000000000e-01 0.0000000000e+00 0.0000000000e+00
1.5000000000e-01 0.0000000000e+00 0.0000000000e+00
1.6000000000e-01 0.0000000000e+00 0.0000000000e+00
1.7000000000e-01 0.0000000000e+00 0.0000000000e+00
1.8000000000e-01 0.0000000000e+00 0.0000000000e+00
1.9000000000e-01 0.0000000000e+00 0.0000000000e+00
2.0000000000e-01 0.0000000000e+00 0.0000000000e+00
2.1000000000e-01 0.0000000000e+00 0.0000000000e+00
2.2000000000e-01 0.0000000000e+00 0.0000000000e+00
2.3000000000e-01 0.0000000000e+00 0.0000000000e+00
2.4000000000e-01 0.0000000000e+00 0.0000000000e+00
2.5000000000e-01 0.0000000000e+00 0.0000000000e+00
2.6000000000e-01 0.0000000000e+00 0.0000000000e+00
2.7000000000e-01 0.0000000000e+00 0.0000000000e+00
2.8000000000e-01 0.0000000000e+00 0.0000000000e+00
2.9000000000e-01 0.0000000000e+00 0.0000000000e+00
3.0000000000e-01 0.0000000000e+00 0.0000000000e+00
3.1000000000e-01 0.0000000000e+00 0.0000000000e+00
3.2000000000e-01 0.0000000000e+00 0.0000000000e+00
3.3000000000e-01 0.0000000000e+00 0.0000000000e+00
3.4000000000e-01 0.0000000000e+00 0.0000000000e+00
3.5000000000e-01 0.0000000000e+00 0.0000000000e+00
3.6000000000e-01 0.0000000000e+00 0.0000000000e+00
3.7000000000e-01 0.0000000000e+00 0.0000000000e+00
3.8000000000e-01 0.0000000000e+00 0.0000000000e+00
3.9000000000e-01 0.0000000000e+00 0.0000000000e+00
4.0000000000e-01 0.0000000000e+00 0.0000000000e+00
4.1000000000e-01 0.0000000000e+00 0.0000000000e+00
4.2000000000e-01 0.0000000000e+00 0.0000000000e+00
4.3000000000e-01 0.0000000000e+00 0.0000000000e+00
4.4000000000e-01 0.0000000000e+00 0.0000000000e+00
4.5000000000e-01 0.0000000000e+00 0.0000000000e+00
4.6000000000e-01 0.0000000000e+00 0.0000000000e+00
4.7000000000e-01 0.0000000000e+00 0.0000000000e+00
4.8000000000e-01 0.0000000000e+00 0.0000000000e+00
4.9000000000e-01 0.0000000000e+00 0.0000000000e+00
5.0000000000e-01 0.0000000000e+00 0.0000000000e+00
5.1000000000e-01 0.0000000000e+00 0.0000000000e+00
5.2000000000e-01 0.0000000000e+00 0.0000000000e+00
5.3000000000e-01 0.0000000000e+00 0.0000000000e+00
5.4000000000e-01 0.0000000000e+00 0.0000000000e+00
5.5000000000e-01 0.0000000000e+00 0.0000000000e+00
5.6000000000e-01 0.0000000000e+00 0.0000000000e+00
5.7000000000e-01 0.0000000000e+00 0.0000000000e+00
5.8000000000e-01 0.0000000000e+00 0.0000000000e+00
5.9000000000e-01 0.0000000000e+00 0.0000000000e+00
6.0000000000e-01 0.0000000000e+00 0.0000000000e+00
6.1000000000e-01 0.0000000000e+00 0.0000000000e+00
6.2000000000e-01 0.0000000000e+00 0.0000000000e+00
6.3000000000e-01 0.0000000000e+00 0.0000000000e+00
6.4000000000e-01 0.0000000000e+00 0.0000000000e+00
6.5000000000e-01 0.0000000000e+00 0.0000000000e+00
6.6000000000e-01 0.0000000000e+00 0.0000000000e+00
6.7000000000e-01 0.0000000000e+00 0.0000000000e+00
6.8000000000e-01 0.0000000000e+00 0.0000000000e+00
6.9000000000e-01 0.0000000000e+00 0.0000000000e+00
7.0000000000e-01 0.0000000000e+00 0.0000000000e+00
7.1000000000e-01 0.0000000000e+00 0.0000000000e+00
7.2000000000e-01 0.0000000000e+00 0.0000000000e+00
7.3000000000e-01 0.0000000000e+00 0.0000000000e+00
7.4000000000e-01 0.0000000000e+00 0.0000000000e+00
7.5000000000e-01 0.0000000000e+00 0.0000000000e+00
7.6000000000e-01 0.0000000000e+00 0.0000000000e+00
7.7000000000e-01 0.0000000000e+00 0.0000000000e+00
7.8000000000e-01 0.0000000000e+00 0.0000000000e+00
7.9000000000e-01 0.0000000000e+00 0.0000000000e+00
8.0000000000e-01 0.0000000000e+00 0.0000000000e+00
8.1000000000e-01 0.0000000000e+00 0.0000000000e+00
8.2000000000e-01 0.0000000000e+00 0.0000000000e+00
8.3000000000e-01 0.0000000000e+00 0.0000000000e+00
8.4000000000e-01 0.0000000000e+00 0.0000000000e+00
8.5000000000e-01 0.0000000000e+00 0.0000000000e+00
8.6000000000e-01 0.0000000000e+00 0.0000000000e+00
8.7000000000e-01 0.0000000000e+00 0.0000000000e+00
8.8000000000e-01 0.0000000000e+00 0.0000000000e+00
8.9000000000e-01 0.0000000000e+00 0.0000000000e+00
9.0000000000e-01 0.0000000000e+00 0.0000000000e+00
9.1000000000e-01 0.0000000000e+00 0.0000000000e+00
9.2000000000e-01 0.0000000000e+00 0.0000000000e+00
9.3000000000e-01 0.0000000000e+00 0.0000000000e+00
9.4000000000e-01 0.0000000000e+00 0.0000000000e+00
9.5000000000e-01 0.0000000000e+00 0.0000000000e+00
9.6000000000e-01 0.0000000000e+00 0.0000000000e+00
9.7000000000e-01 0.0000000000e+00 0.0000000000e+00
9.8000000000e-01 0.0000000000e+00 0.0000000000e+00
9.9000000000e-01 0.0000000000e+00 0.0000000000e+00
1.0000000000e+00 0.0000000000e+00 0.0000000000e+00
0.0000000000e+00 1.0000000000e-02 0.0000000000e+00
1.0000000000e-02 1.0000000000e-02 0.0000000000e+00
2.0000000000e-02 1.0000000000e-02 0.0000000000e+00
3.0000000000e-02 1.0000000000e-02 0.0000000000e+00
4.0000000000e-02 1.0000000000e-02 0.0000000000e+00
5.0000000000e-02 1.0000000000e-02 0.0000000000e+00
6.0000000000e-02 1.0000000000e-02 0.0000000000e+00
7.0000000000e-02 1.0000000000e-02 0.0000000000e+00
8.0000000000e-02 1.0000000000e-02 0.0000000000e+00
9.0000000000e-02 1.0000000000e-02 0.0000000000e+00
1.0000000000e-01 1.0000000000e-02 0.0000000000e+00
1.1000000000e-01 1.0000000000e-02 0.0000000000e+00
1.2000000000e-01 1.0000000000e-02 0.0000000000e+00
1.3000000000e-01 1.0000000000e-02 0.0000000000e+00
1.4000000000e-01 1.0000000000e-02 0.0000000000e+00
1.5000000000e-01 1.0000000000e-02 0.0000000000e+00
1.6000000000e-01 1.0000000000e-02 0.0000000000e+00
1.7000000000e-01 1.0000000000e-02 0.0000000000e+00
1.8000000000e-01 1.0000000000e-02 0.0000000000e+00
1.9000000000e-01 1.0000000000e-02 0.0000000000e+00
2.0000000000e-01 1.0000000000e-02 0.0000000000e+00
2.1000000000e-01 1.0000000000e-02 0.0000000000e+00
2.2000000000e-01 1.0000000000e-02 0.0000000000e+00
2.3000000000e-01 1.0000000000e-02 0.0000000000e+00
2.4000000000e-01 1.0000000000e-02 0.0000000000e+00
2.5000000000e-01 1.0000000000e-02 0.0000000000e+00
2.6000000000e-01 1.0000000000e-02 0.0000000000e+00
2.7000000000e-01 1.0000000000e-02 0.0000000000e+00
2.8000000000e-01 1.0000000000e-02 0.0000000000e+00
2.9000000000e-01 1.0000000000e-02 0.0000000000e+00
3.0000000000e-01 1.0000000000e-02 0.0000000000e+00
3.1000000000e-01 1.0000000000e-02 0.0000000000e+00
3.2000000000e-01 1.0000000000e-02 0.0000000000e+00
3.3000000000e-01 1.0000000000e-02 0.0000000000e+00
3.4000000000e-01 1.0000000000e-02 0.0000000000e+00
3.5000000000e-01 1.0000000000e-02 0.0000000000e+00
3.6000000000e-01 1.0000000000e-02 0.0000000000e+00
3.7000000000e-01 1.0000000000e-02 0.0000000000e+00
3.8000000000e-01 1.0000000000e-02 0.0000000000e+00
3.9000000000e-01 1.0000000000e-02 0.0000000000e+00
4.0000000000e-01 1.0000000000e-02 0.0000000000e+00
4.1000000000e-01 1.0000000000e-02 0.0000000000e+00
4.2000000000e-01 1.0000000000e-02 0.0000000000e+00
4.3000000000e-01 1.0000000000e-02 0.0000000000e+00
4.4000000000e-01 1.0000000000e-02 0.0000000000e+00
4.5000000000e-01 1.0000000000e-02 0.0000000000e+00
4.6000000000e-01 1.0000000000e-02 0.0000000000e+00
4.7000000000e-01 1.0000000000e-02 0.0000000000e+00
4.8000000000e-01 1.0000000000e-02 0.0000000000e+00
4.9000000000e-01 1.0000000000e-02 0.0000000000e+00
5.0000000000e-01 1.0000000000e-02 0.0000000000e+00
5.1000000000e-01 1.0000000000e-02 0.0000000000e+00
5.2000000000e-01 1.0000000000e-02 0.0000000000e+00
5.3000000000e-01 1.0000000000e-02 0.0000000000e+00
5.4000000000e-01 1.0000000000e-02 0.0000000000e+00
5.5000000000e-01 1.0000000000e-02 0.0000000000e+00
5.6000000000e-01 1.0000000000e-02 0.0000000000e+00
5.7000000000e-01 1.0000000000e-02 0.0000000000e+00
5.8000000000e-01 1.0000000000e-02 0.0000000000e+00
5.9000000000e-01 1.0000000000e-02 0.0000000000e+00
6.0000000000e-01 1.0000000000e-02 0.0000000000e+00
6.1000000000e-01 1.0000000000e-02 0.0000000000e+00
6.2000000000e-01 1.0000000000e-02 0.0000000000e+00
6.3000000000e-01 1.0000000000e-02 0.0000000000e+00
6.4000000000e-01 1.0000000000e-02 0.0000000000e+00
6.5000000000e-01 1.0000000000e-02 0.0000000000e+00
6.6000000000e-01 1.0000000000e-02 0.0000000000e+00
6.7000000000e-01 1.0000000000e-02 0.0000000000e+00
6.8000000000e-01 1.0000000000e-02 0.0000000000e+00
6.9000000000e-01 1.0000000000e-02 0.0000000000e+00
7.0000000000e-01 1.0000000000e-02 0.0000000000e+00
7.1000000000e-01 1.0000000000e-02 0.0000000000e+00
7.2000000000e-01 1.0000000000e-02 0.0000000000e+00
7.3000000000e-01 1.0000000000e-02 0.0000000000e+00
7.4000000000e-01 1.0000000000e-02 0.0000000000e+00
7.5000000000e-01 1.0000000000e-02 0.0000000000e+00
7.6000000000e-01 1.0000000000e-02 0.0000000000e+00
7.7000000000e-01 1.0000000000e-02 0.0000000000e+00
7.8000000000e-01 1.0000000000e-02 0.0000000000e+00
7.9000000000e-01 1.0000000000e-02 0.0000000000e+00
8.0000000000e-01 1.0000000000e-02 0.0000000000e+00
8.1000000000e-01 1.0000000000e-02 0.0000000000e+00
8.2000000000e-01 1.0000000000e-02 0.0000000000e+00
8.3000000000e-01 1.0000000000e-02 0.0000000000e+00
8.4000000000e-01 1.0000000000e-02 0.0000000000e+00
8.5000000000e-01 1.0000000000e-02 0.0000000000e+00
8.6000000000e-01 1.0000000000e-02 0.0000000000e+00
8.7000000000e-01 1.0000000000e-02 0.0000000000e+00
8.8000000000e-01 1.0000000000e-02 0.0000000000e+00
8.9000000000e-01 1.0000000000e-02 0.0000000000e+00
9.0000000000e-01 1.0000000000e-02 0.0000000000e+00
9.1000000000e-01 1.0000000000e-02 0.0000000000e+00
9.2000000000e-01 1.0000000000e-02 0.0000000000e+00
[...]
CELL_DATA 10000

SCALARS massDensity float
LOOKUP_TABLE default
1.2007386344e+00
1.2007566317e+00
1.2007825598e+00
1.2008218486e+00
1.2008739881e+00
1.2009383432e+00
1.2010141674e+00
1.2011006137e+00
1.2011967465e+00
1.2013015545e+00
1.2014139667e+00
1.2015328685e+00
1.2016571193e+00
1.2017855694e+00
1.2019170773e+00
1.2020505255e+00
1.2021848359e+00
1.2023189826e+00
1.2024520042e+00
1.2025830134e+00
1.2027112053e+00
1.2028358630e+00
1.2029563616e+00
1.2030721702e+00
1.2031828524e+00
1.2032880638e+00
1.2033875500e+00
1.2034811410e+00
1.2035687466e+00
1.2036503490e+00
1.2037259962e+00
1.2037957937e+00
1.2038598973e+00
1.2039185043e+00
1.2039718462e+00
1.2040201807e+00
1.2040637850e+00
1.2041029487e+00
1.2041379679e+00
1.2041691399e+00
1.2041967587e+00
1.2042211106e+00
1.2042424716e+00
1.2042611046e+00
1.2042772578e+00
1.2042911631e+00
1.2043030361e+00
1.2043130753e+00
1.2043214632e+00
1.2043283662e+00
1.2043339358e+00
1.2043383101e+00
1.2043416143e+00
1.2043439628e+00
1.2043454599e+00
1.2043462014e+00
1.2043462756e+00
1.2043457645e+00
1.2043447444e+00
1.2043432869e+00
1.2043414594e+00
1.2043393251e+00
1.2043369439e+00
1.2043343717e+00
1.2043316611e+00
1.2043288608e+00
1.2043260154e+00
1.2043231656e+00
1.2043203477e+00
1.2043175936e+00
1.2043149305e+00
1.2043123808e+00
1.2043099625e+00
1.2043076891e+00
1.2043055693e+00
1.2043036082e+00
1.2043018067e+00
1.2043001625e+00
1.2042986704e+00
1.2042973225e+00
1.2042961091e+00
1.2042950192e+00
1.2042940409e+00
1.2042931620e+00
1.2042923708e+00
1.2042916565e+00
1.2042910099e+00
1.2042904236e+00
1.2042898923e+00
1.2042894136e+00
1.2042889875e+00
1.2042886171e+00
1.2042883091e+00
1.2042880755e+00
1.2042879358e+00
1.2042879222e+00
1.2042880857e+00
1.2042885032e+00
1.2042892790e+00
1.2042832704e+00
1.2007566317e+00
1.2007756704e+00
1.2008020600e+00
1.2008415326e+00
1.2008936493e+00
1.2009578235e+00
1.2010333406e+00
1.2011193755e+00
1.2012150076e+00
1.2013192374e+00
1.2014310029e+00
1.2015491978e+00
1.2016726879e+00
1.2018003305e+00
1.2019309894e+00
1.2020635531e+00
1.2021969478e+00
1.2023301531e+00
1.2024622115e+00
1.2025922403e+00
1.2027194382e+00
1.2028430923e+00
1.2029625809e+00
1.2030773770e+00
1.2031870468e+00
1.2032912494e+00
1.2033897329e+00
1.2034823307e+00
1.2035689546e+00
1.2036495901e+00
1.2037242874e+00
1.2037931552e+00
1.2038563516e+00
1.2039140772e+00
1.2039665663e+00
1.2040140801e+00
1.2040568990e+00
1.2040953162e+00
1.2041296317e+00
1.2041601469e+00
1.2041871597e+00
1.2042109611e+00
1.2042318310e+00
1.2042500370e+00
1.2042658309e+00
1.2042794491e+00
1.2042911102e+00
1.2043010163e+00
1.2043093518e+00
1.2043162851e+00
1.2043219685e+00
1.2043265401e+00
1.2043301239e+00
1.2043328323e+00
1.2043347663e+00
1.2043360177e+00
1.2043366694e+00
1.2043367972e+00
1.2043364704e+00
1.2043357531e+00
1.2043347041e+00
1.2043333784e+00
1.2043318268e+00
1.2043300965e+00
1.2043282313e+00
1.2043262717e+00
1.2043242545e+00
1.2043222133e+00
1.2043201781e+00
1.2043181751e+00
1.2043162271e+00
1.2043143530e+00
1.2043125680e+00
1.2043108840e+00
1.2043093091e+00
1.2043078484e+00
1.2043065040e+00
1.2043052750e+00
1.2043041586e+00
1.2043031496e+00
1.2043022416e+00
1.2043014268e+00
1.2043006967e+00
1.2043000426e+00
1.2042994559e+00
1.2042989284e+00
1.2042984530e+00
1.2042980234e+00
1.2042976349e+00
1.2042972844e+00
1.2042969701e+00
1.2042966922e+00
1.2042964529e+00
1.2042962566e+00
1.2042961110e+00
1.2042960270e+00
1.2042960192e+00
1.2042961022e+00
1.2042962789e+00
1.2042890038e+00
1.2007825598e+00
1.2008020600e+00
1.2008285207e+00
1.2008678860e+00
1.2009197446e+00
1.2009835320e+00
1.2010585521e+00
1.2011439936e+00
1.2012389485e+00
1.2013424276e+00
1.2014533793e+00
1.2015707062e+00
1.2016932839e+00
1.2018199776e+00
1.2019496608e+00
1.2020812291e+00
1.2022136178e+00
1.2023458128e+00
1.2024768644e+00
1.2026058957e+00
1.2027321119e+00
1.2028548046e+00
1.2029733576e+00
1.2030872471e+00
1.2031960433e+00
1.2032994077e+00
1.2033970912e+00
1.2034889280e+00
1.2035748322e+00
1.2036547892e+00
1.2037288501e+00
1.2037971230e+00
1.2038597663e+00
1.2039169795e+00
1.2039689966e+00
1.2040160774e+00
1.2040585016e+00
1.2040965610e+00
1.2041305546e+00
1.2041607823e+00
1.2041875410e+00
1.2042111200e+00
1.2042317985e+00
1.2042498420e+00
1.2042655016e+00
1.2042790117e+00
1.2042905899e+00
1.2043004362e+00
1.2043087339e+00
1.2043156492e+00
1.2043213330e+00
1.2043259211e+00
1.2043295360e+00
1.2043322876e+00
1.2043342753e+00
1.2043355885e+00
1.2043363082e+00
1.2043365081e+00
1.2043362560e+00
1.2043356137e+00
1.2043346389e+00
1.2043333848e+00
1.2043319011e+00
1.2043302341e+00
1.2043284267e+00
1.2043265189e+00
1.2043245472e+00
1.2043225450e+00
1.2043205423e+00
1.2043185657e+00
1.2043166382e+00
1.2043147792e+00
1.2043130046e+00
1.2043113267e+00
1.2043097543e+00
1.2043082932e+00
1.2043069461e+00
1.2043057128e+00
1.2043045909e+00
1.2043035760e+00
1.2043026620e+00
1.2043018417e+00
1.2043011068e+00
1.2043004490e+00
1.2042998597e+00
1.2042993308e+00
1.2042988547e+00
1.2042984248e+00
1.2042980356e+00
1.2042976828e+00
1.2042973632e+00
1.2042970751e+00
1.2042968177e+00
1.2042965917e+00
1.2042963981e+00
1.2042962382e+00
1.2042961102e+00
1.2042960041e+00
1.2042958892e+00
1.2042879395e+00
1.2008218486e+00
1.2008415326e+00
1.2008678860e+00
1.2009069626e+00
1.2009583585e+00
1.2010215225e+00
1.2010957720e+00
1.2011803106e+00
1.2012742433e+00
1.2013765955e+00
1.2014863281e+00
1.2016023579e+00
1.2017235730e+00
1.2018488527e+00
1.2019770820e+00
1.2021071702e+00
1.2022380633e+00
1.2023687595e+00
1.2024983187e+00
1.2026258748e+00
1.2027506408e+00
1.2028719173e+00
1.2029890941e+00
1.2031016545e+00
1.2032091729e+00
1.2033113157e+00
1.2034078361e+00
1.2034985719e+00
1.2035834376e+00
1.2036624203e+00
1.2037355707e+00
1.2038029972e+00
1.2038648566e+00
1.2039213477e+00
1.2039727022e+00
1.2040191788e+00
1.2040610543e+00
1.2040986189e+00
1.2041321687e+00
1.2041620016e+00
1.2041884117e+00
1.2042116864e+00
1.2042321017e+00
1.2042499214e+00
1.2042653937e+00
1.2042787509e+00
1.2042902079e+00
1.2042999626e+00
1.2043081957e+00
1.2043150711e+00
1.2043207371e+00
1.2043253271e+00
1.2043289611e+00
1.2043317466e+00
1.2043337803e+00
1.2043351495e+00
1.2043359326e+00
1.2043362014e+00
1.2043360211e+00
1.2043354520e+00
1.2043345497e+00
1.2043333661e+00
1.2043319494e+00
1.2043303449e+00
1.2043285947e+00
1.2043267380e+00
1.2043248111e+00
1.2043228473e+00
1.2043208765e+00
1.2043189255e+00
1.2043170177e+00
1.2043151731e+00
1.2043134080e+00
1.2043117353e+00
1.2043101646e+00
1.2043087023e+00
1.2043073516e+00
1.2043061132e+00
1.2043049851e+00
1.2043039634e+00
1.2043030426e+00
1.2043022157e+00
1.2043014750e+00
1.2043008121e+00
1.2043002186e+00
1.2042996861e+00
1.2042992070e+00
1.2042987741e+00
1.2042983811e+00
1.2042980226e+00
1.2042976941e+00
1.2042973919e+00
1.2042971129e+00
1.2042968541e+00
1.2042966122e+00
1.2042963813e+00
1.2042961515e+00
1.2042959029e+00
1.2042955980e+00
1.2042872457e+00
1.2008739881e+00
1.2008936493e+00
1.2009197446e+00
1.2009583585e+00
1.2010090895e+00
1.2010713945e+00
1.2011446041e+00
1.2012279354e+00
1.2013205100e+00
1.2014213683e+00
1.2015294891e+00
1.2016438051e+00
1.2017632226e+00
1.2018866367e+00
1.2020129507e+00
1.2021410887e+00
1.2022700138e+00
1.2023987380e+00
1.2025263365e+00
1.2026519546e+00
1.2027748187e+00
1.2028942387e+00
1.2030096148e+00
1.2031204371e+00
1.2032262880e+00
1.2033268381e+00
1.2034218461e+00
1.2035111515e+00
1.2035946720e+00
1.2036723945e+00
1.2037443708e+00
1.2038107076e+00
1.2038715612e+00
1.2039271275e+00
1.2039776367e+00
1.2040233436e+00
1.2040645228e+00
1.2041014603e+00
1.2041344496e+00
1.2041637844e+00
1.2041897557e+00
1.2042126468e+00
1.2042327308e+00
1.2042502675e+00
1.2042655021e+00
1.2042786632e+00
1.2042899628e+00
1.2042995954e+00
1.2043077384e+00
1.2043145528e+00
1.2043201837e+00
1.2043247615e+00
1.2043284031e+00
1.2043312133e+00
1.2043332859e+00
1.2043347052e+00
1.2043355473e+00
1.2043358811e+00
1.2043357700e+00
1.2043352717e+00
1.2043344402e+00
1.2043333256e+00
1.2043319747e+00
1.2043304315e+00
1.2043287374e+00
1.2043269308e+00
1.2043250478e+00
1.2043231213e+00
1.2043211813e+00
1.2043192550e+00
1.2043173660e+00
1.2043155347e+00
1.2043137781e+00
1.2043121097e+00
1.2043105398e+00
1.2043090754e+00
1.2043077204e+00
1.2043064760e+00
1.2043053410e+00
1.2043043119e+00
1.2043033835e+00
1.2043025493e+00
1.2043018017e+00
1.2043011327e+00
1.2043005337e+00
1.2042999964e+00
1.2042995127e+00
1.2042990750e+00
1.2042986763e+00
1.2042983103e+00
1.2042979713e+00
1.2042976540e+00
1.2042973533e+00
1.2042970639e+00
1.2042967791e+00
1.2042964898e+00
1.2042961823e+00
1.2042958351e+00
1.2042954141e+00
1.2042868451e+00
1.2009383432e+00
1.2009578235e+00
1.2009835320e+00
1.2010215225e+00
1.2010713945e+00
1.2011326138e+00
1.2012045225e+00
1.2012863542e+00
1.2013772463e+00
1.2014762595e+00
1.2015823910e+00
1.2016945951e+00
1.2018117976e+00
1.2019329159e+00
1.2020568720e+00
1.2021826121e+00
1.2023091169e+00
1.2024354184e+00
1.2025606076e+00
1.2026838475e+00
1.2028043773e+00
1.2029215217e+00
1.2030346909e+00
1.2031433862e+00
1.2032471969e+00
1.2033458017e+00
1.2034389630e+00
1.2035265253e+00
1.2036084072e+00
1.2036845981e+00
1.2037551484e+00
1.2038201649e+00
1.2038798008e+00
1.2039342504e+00
1.2039837395e+00
1.2040285203e+00
1.2040688623e+00
1.2041050481e+00
1.2041373656e+00
1.2041661047e+00
1.2041915513e+00
1.2042139843e+00
1.2042336720e+00
1.2042508702e+00
1.2042658192e+00
1.2042787438e+00
1.2042898515e+00
1.2042993332e+00
1.2043073620e+00
1.2043140955e+00
1.2043196749e+00
1.2043242271e+00
1.2043278655e+00
1.2043306916e+00
1.2043327958e+00
1.2043342596e+00
1.2043351560e+00
1.2043355514e+00
1.2043355063e+00
1.2043350765e+00
1.2043343136e+00
1.2043332661e+00
1.2043319792e+00
1.2043304959e+00
1.2043288565e+00
1.2043270987e+00
1.2043252582e+00
1.2043233677e+00
1.2043214574e+00
1.2043195544e+00
1.2043176829e+00
1.2043158638e+00
1.2043141146e+00
1.2043124496e+00
1.2043108795e+00
1.2043094122e+00
1.2043080521e+00
1.2043068010e+00
1.2043056584e+00
1.2043046212e+00
1.2043036847e+00
1.2043028426e+00
1.2043020877e+00
1.2043014119e+00
1.2043008068e+00
1.2043002639e+00
1.2042997748e+00
1.2042993316e+00
1.2042989266e+00
1.2042985527e+00
1.2042982033e+00
1.2042978720e+00
1.2042975523e+00
1.2042972371e+00
1.2042969184e+00
1.2042965854e+00
1.2042962241e+00
1.2042958144e+00
1.2042953291e+00
1.2042866718e+00
1.2010141674e+00
1.2010333406e+00
1.2010585521e+00
1.2010957720e+00
1.2011446041e+00
1.2012045225e+00
1.2012748839e+00
1.2013549373e+00
1.2014438411e+00
1.2015406755e+00
1.2016444619e+00
1.2017541768e+00
1.2018687715e+00
1.2019871861e+00
1.2021083687e+00
1.2022312870e+00
1.2023549465e+00
1.2024783991e+00
1.2026007580e+00
1.2027212032e+00
1.2028389931e+00
1.2029534659e+00
1.2030640471e+00
1.2031702481e+00
1.2032716693e+00
1.2033679957e+00
1.2034589972e+00
1.2035445211e+00
1.2036244901e+00
1.2036988932e+00
1.2037677820e+00
1.2038312605e+00
1.2038894808e+00
1.2039426327e+00
1.2039909391e+00
1.2040346463e+00
1.2040740200e+00
1.2041093364e+00
1.2041408788e+00
1.2041689305e+00
1.2041937725e+00
1.2042156776e+00
1.2042349089e+00
1.2042517163e+00
1.2042663354e+00
1.2042789855e+00
1.2042898696e+00
1.2042991733e+00
1.2043070658e+00
1.2043136996e+00
1.2043192122e+00
1.2043237261e+00
1.2043273511e+00
1.2043301846e+00
1.2043323138e+00
1.2043338164e+00
1.2043347626e+00
1.2043352156e+00
1.2043352334e+00
1.2043348692e+00
1.2043341725e+00
1.2043331900e+00
1.2043319653e+00
1.2043305399e+00
1.2043289534e+00
1.2043272427e+00
1.2043254430e+00
1.2043235869e+00
1.2043217047e+00
1.2043198236e+00
1.2043179683e+00
1.2043161601e+00
1.2043144171e+00
1.2043127543e+00
1.2043111831e+00
1.2043097119e+00
1.2043083460e+00
1.2043070878e+00
1.2043059370e+00
1.2043048914e+00
1.2043039464e+00
1.2043030962e+00
1.2043023337e+00
1.2043016510e+00
1.2043010397e+00
1.2043004911e+00
1.2042999967e+00
1.2042995481e+00
1.2042991372e+00
1.2042987564e+00
1.2042983983e+00
1.2042980557e+00
1.2042977212e+00
1.2042973871e+00
1.2042970444e+00
1.2042966825e+00
1.2042962881e+00
1.2042958444e+00
1.2042953304e+00
1.2042866762e+00
1.2011006137e+00
1.2011193755e+00
1.2011439936e+00
1.2011803106e+00
1.2012279354e+00
1.2012863542e+00
1.2013549373e+00
1.2014329540e+00
1.2015195825e+00
1.2016139284e+00
1.2017150368e+00
1.2018219124e+00
1.2019335323e+00
1.2020488657e+00
1.2021668862e+00
1.2022865906e+00
1.2024070081e+00
1.2025272175e+00
1.2026463532e+00
1.2027636189e+00
1.2028782906e+00
1.2029897259e+00
1.2030973641e+00
1.2032007314e+00
1.2032994376e+00
1.2033931783e+00
1.2034817285e+00
1.2035649419e+00
1.2036427424e+00
1.2037151219e+00
1.2037821301e+00
1.2038438706e+00
1.2039004914e+00
1.2039521794e+00
1.2039991518e+00
1.2040416504e+00
1.2040799340e+00
1.2041142735e+00
1.2041449448e+00
1.2041722255e+00
1.2041963889e+00
1.2042177023e+00
1.2042364215e+00
1.2042527907e+00
1.2042670389e+00
1.2042793801e+00
1.2042900110e+00
1.2042991123e+00
1.2043068476e+00
1.2043133648e+00
1.2043187963e+00
1.2043232603e+00
1.2043268621e+00
1.2043296952e+00
1.2043318426e+00
1.2043333787e+00
1.2043343701e+00
1.2043348769e+00
1.2043349541e+00
1.2043346525e+00
1.2043340194e+00
1.2043330993e+00
1.2043319344e+00
1.2043305649e+00
1.2043290290e+00
1.2043273634e+00
1.2043256026e+00
1.2043237790e+00
1.2043219231e+00
1.2043200622e+00
1.2043182215e+00
1.2043164228e+00
1.2043146848e+00
1.2043130230e+00
1.2043114497e+00
1.2043099740e+00
1.2043086016e+00
1.2043073357e+00
1.2043061766e+00
1.2043051223e+00
1.2043041689e+00
1.2043033107e+00
1.2043025408e+00
1.2043018516e+00
1.2043012344e+00
1.2043006808e+00
1.2043001818e+00
1.2042997289e+00
1.2042993136e+00
1.2042989279e+00
1.2042985639e+00
1.2042982139e+00
1.2042978701e+00
1.2042975244e+00
1.2042971678e+00
1.2042967905e+00
1.2042963806e+00
1.2042959246e+00
1.2042954070e+00
1.2042868231e+00
1.2011967465e+00
1.2012150076e+00
1.2012389485e+00
1.2012742433e+00
1.2013205100e+00
1.2013772463e+00
1.2014438411e+00
1.2015195825e+00
1.2016036741e+00
1.2016952458e+00
1.2017933726e+00
1.2018970865e+00
1.2020053969e+00
1.2021173015e+00
1.2022318064e+00
1.2023479360e+00
1.2024647507e+00
1.2025813544e+00
1.2026969099e+00
1.2028106425e+00
1.2029218522e+00
1.2030299142e+00
1.2031342869e+00
1.2032345092e+00
1.2033302052e+00
1.2034210785e+00
1.2035069132e+00
1.2035875665e+00
1.2036629675e+00
1.2037331073e+00
1.2037980369e+00
1.2038578563e+00
1.2039127115e+00
1.2039627837e+00
1.2040082858e+00
1.2040494524e+00
1.2040865365e+00
1.2041198009e+00
1.2041495150e+00
1.2041759482e+00
1.2041993671e+00
1.2042200305e+00
1.2042381879e+00
1.2042540757e+00
1.2042679165e+00
1.2042799172e+00
1.2042902687e+00
1.2042991452e+00
1.2043067049e+00
1.2043130898e+00
1.2043184274e+00
1.2043228307e+00
1.2043264005e+00
1.2043292256e+00
1.2043313851e+00
1.2043329493e+00
1.2043339813e+00
1.2043345378e+00
1.2043346710e+00
1.2043344288e+00
1.2043338563e+00
1.2043329958e+00
1.2043318880e+00
1.2043305717e+00
1.2043290842e+00
1.2043274612e+00
1.2043257370e+00
1.2043239439e+00
1.2043221122e+00
1.2043202697e+00
1.2043184419e+00
1.2043166511e+00
1.2043149167e+00
1.2043132549e+00
1.2043116786e+00
1.2043101976e+00
1.2043088183e+00
1.2043075444e+00
1.2043063768e+00
1.2043053141e+00
1.2043043525e+00
1.2043034868e+00
1.2043027103e+00
1.2043020153e+00
1.2043013934e+00
1.2043008359e+00
1.2043003339e+00
1.2042998786e+00
1.2042994613e+00
1.2042990736e+00
1.2042987073e+00
1.2042983546e+00
1.2042980075e+00
1.2042976579e+00
1.2042972973e+00
1.2042969166e+00
1.2042965058e+00
1.2042960543e+00
1.2042955507e+00
1.2042870895e+00
1.2013015545e+00
1.2013192374e+00
1.2013424276e+00
1.2013765955e+00
1.2014213683e+00
1.2014762595e+00
1.2015406755e+00
1.2016139284e+00
1.2016952458e+00
1.2017837878e+00
1.2018786577e+00
1.2019789219e+00
1.2020836199e+00
1.2021917851e+00
1.2023024545e+00
1.2024146872e+00
1.2025275728e+00
1.2026402477e+00
1.2027519003e+00
1.2028617847e+00
1.2029692222e+00
1.2030736117e+00
1.2031744281e+00
1.2032712285e+00
1.2033636483e+00
1.2034514036e+00
1.2035342849e+00
1.2036121570e+00
1.2036849502e+00
1.2037526590e+00
1.2038153319e+00
1.2038730683e+00
1.2039260088e+00
1.2039743311e+00
1.2040182406e+00
1.2040579665e+00
1.2040937529e+00
1.2041258560e+00
1.2041545360e+00
1.2041800548e+00
1.2042026699e+00
1.2042226326e+00
1.2042401837e+00
1.2042555523e+00
1.2042689531e+00
1.2042805859e+00
1.2042906345e+00
1.2042992666e+00
1.2043066340e+00
1.2043128729e+00
1.2043181049e+00
1.2043224379e+00
1.2043259674e+00
1.2043287777e+00
1.2043309433e+00
1.2043325305e+00
1.2043335985e+00
1.2043342008e+00
1.2043343862e+00
1.2043342000e+00
1.2043336848e+00
1.2043328809e+00
1.2043318272e+00
1.2043305612e+00
1.2043291192e+00
1.2043275363e+00
1.2043258462e+00
1.2043240812e+00
1.2043222715e+00
1.2043204454e+00
1.2043186286e+00
1.2043168441e+00
1.2043151120e+00
1.2043134491e+00
1.2043118689e+00
1.2043103820e+00
1.2043089955e+00
1.2043077135e+00
1.2043065377e+00
1.2043054669e+00
1.2043044978e+00
1.2043036255e+00
1.2043028434e+00
1.2043021441e+00
1.2043015191e+00
1.2043009597e+00
1.2043004569e+00
1.2043000018e+00
1.2042995855e+00
1.2042991995e+00
1.2042988355e+00
1.2042984854e+00
1.2042981414e+00
1.2042977956e+00
1.2042974401e+00
1.2042970668e+00
1.2042966674e+00
1.2042962334e+00
1.2042957569e+00
1.2042874619e+00
1.2014139667e+00
1.2014310029e+00
1.2014533793e+00
1.2014863281e+00
1.2015294891e+00
1.2015823910e+00
1.2016444619e+00
1.2017150368e+00
1.2017933726e+00
1.2018786577e+00
1.2019700305e+00
1.2020665887e+00
1.2021674097e+00
1.2022715601e+00
1.2023781148e+00
1.2024861652e+00
1.2025948373e+00
1.2027032971e+00
1.2028107659e+00
1.2029165232e+00
1.2030199186e+00
1.2031203712e+00
1.2032173785e+00
1.2033105125e+00
1.2033994250e+00
1.2034838415e+00
1.2035635632e+00
1.2036384588e+00
1.2037084644e+00
1.2037735736e+00
1.2038338361e+00
1.2038893471e+00
1.2039402445e+00
1.2039866990e+00
1.2040289110e+00
1.2040671007e+00
1.2041015055e+00
1.2041323717e+00
1.2041599517e+00
1.2041844975e+00
1.2042062585e+00
1.2042254761e+00
1.2042423832e+00
1.2042571997e+00
1.2042701327e+00
1.2042813737e+00
1.2042910993e+00
1.2042994700e+00
1.2043066308e+00
1.2043127115e+00
1.2043178278e+00
1.2043220818e+00
1.2043255637e+00
1.2043283527e+00
1.2043305190e+00
1.2043321243e+00
1.2043332239e+00
1.2043338678e+00
1.2043341016e+00
1.2043339678e+00
1.2043335063e+00
1.2043327557e+00
1.2043317529e+00
1.2043305341e+00
1.2043291346e+00
1.2043275888e+00
1.2043259301e+00
1.2043241905e+00
1.2043224005e+00
1.2043205886e+00
1.2043187809e+00
1.2043170012e+00
1.2043152699e+00
1.2043136048e+00
1.2043120200e+00
1.2043105267e+00
1.2043091327e+00
1.2043078430e+00
1.2043066593e+00
1.2043055811e+00
1.2043046056e+00
1.2043037280e+00
1.2043029420e+00
1.2043022402e+00
1.2043016143e+00
1.2043010555e+00
1.2043005548e+00
1.2043001032e+00
1.2042996918e+00
1.2042993118e+00
1.2042989550e+00
1.2042986134e+00
1.2042982792e+00
1.2042979450e+00
1.2042976034e+00
1.2042972472e+00
1.2042968696e+00
1.2042964640e+00
1.2042960245e+00
1.2042879345e+00
1.2015328685e+00
1.2015491978e+00
1.2015707062e+00
1.2016023579e+00
1.2016438051e+00
1.2016945951e+00
1.2017541768e+00
1.2018219124e+00
1.2018970865e+00
1.2019789219e+00
1.2020665887e+00
1.2021592235e+00
1.2022559384e+00
1.2023558402e+00
1.2024580385e+00
1.2025616646e+00
1.2026658773e+00
1.2027698796e+00
1.2028729219e+00
1.2029743164e+00
1.2030734368e+00
1.2031697293e+00
1.2032627098e+00
1.2033519711e+00
1.2034371777e+00
1.2035180694e+00
1.2035944543e+00
1.2036662097e+00
1.2037332731e+00
1.2037956416e+00
1.2038533620e+00
1.2039065285e+00
1.2039552729e+00
1.2039997616e+00
1.2040401863e+00
1.2040767607e+00
1.2041097122e+00
1.2041392791e+00
1.2041657032e+00
1.2041892278e+00
1.2042100918e+00
1.2042285279e+00
1.2042447589e+00
1.2042589964e+00
1.2042714380e+00
1.2042822676e+00
1.2042916533e+00
1.2042997484e+00
1.2043066905e+00
1.2043126028e+00
1.2043175945e+00
1.2043217620e+00
1.2043251897e+00
1.2043279518e+00
1.2043301135e+00
1.2043317322e+00
1.2043328591e+00
1.2043335405e+00
1.2043338188e+00
1.2043337335e+00
1.2043333222e+00
1.2043326211e+00
1.2043316657e+00
1.2043304908e+00
1.2043291305e+00
1.2043276187e+00
1.2043259884e+00
1.2043242715e+00
1.2043224987e+00
1.2043206987e+00
1.2043188983e+00
1.2043171216e+00