# vtk DataFile Version 2.0
Blank
ASCII
DATASET STRUCTURED_GRID
DIMENSIONS 101 101 2
POINTS 20402 float
0.0000000000e+00 0.0000000000e+00 0.0000000000e+00
1.0000000000e-02 0.0000000000e+00 0.0000000000e+00
2.0000000000e-02 0.0000000000e+00 0.0000000000e+00
3.0000000000e-02 0.0000000000e+00 0.0000000000e+00
4.0000000000e-02 0.0000000000e+00 0.0000000000e+00
5.0000000000e-02 0.0000000000e+00 0.0000000000e+00
6.0000000000e-02 0.0000000000e+00 0.0000000000e+00
7.0000000000e-02 0.0000000000e+00 0.0000000000e+00
8.0000000000e-02 0.0000000000e+00 0.0000000000e+00
9.0000000000e-02 0.0000000000e+00 0.0000000000e+00
1.0000000000e-01 0.0000000000e+00 0.0000000000e+00
1.1000000000e-01 0.0000000000e+00 0.0000000000e+00
1.2000000000e-01 0.0000000000e+00 0.0000000000e+00
1.3000000000e-01 0.0000000000e+00 0.0000000000e+00
1.4000000000e-01 0.0000000000e+00 0.0000000000e+00
1.5000000000e-01 0.0000000000e+00 0.0000000000e+00
1.6000000000e-01 0.0000000000e+00 0.0000000000e+00
1.7000000000e-01 0.0000000000e+00 0.0000000000e+00
1.8000000000e-01 0.0000000000e+00 0.0000000000e+00
1.9000000000e-01 0.0000000000e+00 0.0000000000e+00
2.0000000000e-01 0.0000000000e+00 0.0000000000e+00
2.1000000000e-01 0.0000000000e+00 0.0000000000e+00
2.2000000000e-01 0.0000000000e+00 0.0000000000e+00
2.3000000000e-01 0.0000000000e+00 0.0000000000e+00
2.4000000000e-01 0.0000000000e+00 0.0000000000e+00
2.5000000000e-01 0.0000000000e+00 0.0000000000e+00
2.6000000000e-01 0.0000000000e+00 0.0000000000e+00
2.7000000000e-01 0.0000000000e+00 0.0000000000e+00
2.8000000000e-01 0.0000000000e+00 0.0000000000e+00
2.9000000000e-01 0.0000000000e+00 0.0000000000e+00
3.0000000000e-01 0.0000000000e+00 0.0000000000e+00
3.1000000000e-01 0.0000000000e+00 0.0000000000e+00
3.2000000000e-01 0.0000000000e+00 0.0000000000e+00
3.3000000000e-01 0.0000000000e+00 0.0000000000e+00
3.4000000000e-01 0.0000000000e+00 0.0000000000e+00
3.5000000000e-01 0.0000000000e+00 0.0000000000e+00
3.6000000000e-01 0.0000000000e+00 0.0000000000e+00
3.7000000000e-01 0.0000000000e+00 0.0000000000e+00
3.8000000000e-01 0.0000000000e+00 0.0000000000e+00
3.9000000000e-01 0.0000000000e+00 0.0000000000e+00
4.0000000000e-01 0.0000000000e+00 0.0000000000e+00
4.1000000000e-01 0.0000000000e+00 0.0000000000e+00
4.2000000000e-01 0.0000000000e+00 0.0000000000e+00
4.3000000000e-01 0.0000000000e+00 0.0000000000e+00
4.4000000000e-01 0.0000000000e+00 0.0000000000e+00
4.5000000000e-01 0.0000000000e+00 0.0000000000e+00
4.6000000000e-01 0.0000000000e+00 0.0000000000e+00
4.7000000000e-01 0.0000000000e+00 0.0000000000e+00
4.8000000000e-01 0.0000000000e+00 0.0000000000e+00
4.9000000000e-01 0.0000000000e+00 0.0000000000e+00
5.0000000000e-01 0.0000000000e+00 0.0000000000e+00
5.1000000000e-01 0.0000000000e+00 0.0000000000e+00
5.2000000000e-01 0.0000000000e+00 0.0000000000e+00
5.3000000000e-01 0.0000000000e+00 0.0000000000e+00
5.4000000000e-01 0.0000000000e+00 0.0000000000e+00
5.5000000000e-01 0.0000000000e+00 0.0000000000e+00
5.6000000000e-01 0.0000000000e+00 0.0000000000e+00
5.7000000000e-01 0.0000000000e+00 0.0000000000e+00
5.8000000000e-01 0.0000000000e+00 0.0000000000e+00
5.9000000000e-01 0.0000000000e+00 0.0000000000e+00
6.0000000000e-01 0.0000000000e+00 0.0000000000e+00
6.1000000000e-01 0.0000000000e+00 0.0000000000e+00
6.2000000000e-01 0.0000000000e+00 0.0000000000e+00
6.3000000000e-01 0.0000000000e+00 0.0000000000e+00
6.4000000000e-01 0.0000000000e+00 0.0000000000e+00
6.5000000000e-01 0.0000000000e+00 0.0000000000e+00
6.6000000000e-01 0.0000000000e+00 0.0000000000e+00
6.7000000000e-01 0.0000000000e+00 0.0000000000e+00
6.8000000000e-01 0.0000000000e+00 0.0000000000e+00
6.9000000000e-01 0.0000000000e+00 0.0000000000e+00
7.0000000000e-01 0.0000000000e+00 0.0000000000e+00
7.1000000000e-01 0.0000000000e+00 0.0000000000e+00
7.2000000000e-01 0.0000000000e+00 0.0000000000e+00
7.3000000000e-01 0.0000000000e+00 0.0000000000e+00
7.4000000000e-01 0.0000000000e+00 0.0000000000e+00
7.5000000000e-01 0.0000000000e+00 0.0000000000e+00
7.6000000000e-01 0.0000000000e+00 0.0000000000e+00
7.7000000000e-01 0.0000000000e+00 0.0000000000e+00
7.8000000000e-01 0.0000000000e+00 0.0000000000e+00
7.9000000000e-01 0.0000000000e+00 0.0000000000e+00
8.0000000000e-01 0.0000000000e+00 0.0000000000e+00
8.1000000000e-01 0.0000000000e+00 0.0000000000e+00
8.2000000000e-01 0.0000000000e+00 0.0000000000e+00
8.3000000000e-01 0.0000000000e+00 0.0000000000e+00
8.4000000000e-01 0.0000000000e+00 0.0000000000e+00
8.5000000000e-01 0.0000000000e+00 0.0000000000e+00
8.6000000000e-01 0.0000000000e+00 0.0000000000e+00
8.7000000000e-01 0.0000000000e+00 0.0000000000e+00
8.8000000000e-01 0.0000000000e+00 0.0000000000e+00
8.9000000000e-01 0.0000000000e+00 0.0000000000e+00
9.0000000000e-01 0.0000000000e+00 0.0000000000e+00
9.1000000000e-01 0.0000000000e+00 0.0000000000e+00
9.2000000000e-01 0.0000000000e+00 0.0000000000e+00
9.3000000000e-01 0.0000000000e+00 0.0000000000e+00
9.4000000000e-01 0.0000000000e+00 0.0000000000e+00
9.5000000000e-01 0.0000000000e+00 0.0000000000e+00
9.6000000000e-01 0.0000000000e+00 0.0000000000e+00
9.7000000000e-01 0.0000000000e+00 0.0000000000e+00
9.8000000000e-01 0.0000000000e+00 0.0000000000e+00
9.9000000000e-01 0.0000000000e+00 0.0000000000e+00
1.0000000000e+00 0.0000000000e+00 0.0000000000e+00
0.0000000000e+00 1.0000000000e-02 0.0000000000e+00
1.0000000000e-02 1.0000000000e-02 0.0000000000e+00
2.0000000000e-02 1.0000000000e-02 0.0000000000e+00
3.0000000000e-02 1.0000000000e-02 0.0000000000e+00
4.0000000000e-02 1.0000000000e-02 0.0000000000e+00
5.0000000000e-02 1.0000000000e-02 0.0000000000e+00
6.0000000000e-02 1.0000000000e-02 0.0000000000e+00
7.0000000000e-02 1.0000000000e-02 0.0000000000e+00
8.0000000000e-02 1.0000000000e-02 0.0000000000e+00
9.0000000000e-02 1.0000000000e-02 0.0000000000e+00
1.0000000000e-01 1.0000000000e-02 0.0000000000e+00
1.1000000000e-01 1.0000000000e-02 0.0000000000e+00
1.2000000000e-01 1.0000000000e-02 0.0000000000e+00
1.3000000000e-01 1.0000000000e-02 0.0000000000e+00
1.4000000000e-01 1.0000000000e-02 0.0000000000e+00
1.5000000000e-01 1.0000000000e-02 0.0000000000e+00
1.6000000000e-01 1.0000000000e-02 0.0000000000e+00
1.7000000000e-01 1.0000000000e-02 0.0000000000e+00
1.8000000000e-01 1.0000000000e-02 0.0000000000e+00
1.9000000000e-01 1.0000000000e-02 0.0000000000e+00
2.0000000000e-01 1.0000000000e-02 0.0000000000e+00
2.1000000000e-01 1.0000000000e-02 0.0000000000e+00
2.2000000000e-01 1.0000000000e-02 0.0000000000e+00
2.3000000000e-01 1.0000000000e-02 0.0000000000e+00
2.4000000000e-01 1.0000000000e-02 0.0000000000e+00
2.5000000000e-01 1.0000000000e-02 0.0000000000e+00
2.6000000000e-01 1.0000000000e-02 0.0000000000e+00
2.7000000000e-01 1.0000000000e-02 0.0000000000e+00
2.8000000000e-01 1.0000000000e-02 0.0000000000e+00
2.9000000000e-01 1.0000000000e-02 0.0000000000e+00
3.0000000000e-01 1.0000000000e-02 0.0000000000e+00
3.1000000000e-01 1.0000000000e-02 0.0000000000e+00
3.2000000000e-01 1.0000000000e-02 0.0000000000e+00
3.3000000000e-01 1.0000000000e-02 0.0000000000e+00
3.4000000000e-01 1.0000000000e-02 0.0000000000e+00
3.5000000000e-01 1.0000000000e-02 0.0000000000e+00
3.6000000000e-01 1.0000000000e-02 0.0000000000e+00
3.7000000000e-01 1.0000000000e-02 0.0000000000e+00
3.8000000000e-01 1.0000000000e-02 0.0000000000e+00
3.9000000000e-01 1.0000000000e-02 0.0000000000e+00
4.0000000000e-01 1.0000000000e-02 0.0000000000e+00
4.1000000000e-01 1.0000000000e-02 0.0000000000e+00
4.2000000000e-01 1.0000000000e-02 0.0000000000e+00
4.3000000000e-01 1.0000000000e-02 0.0000000000e+00
4.4000000000e-01 1.0000000000e-02 0.0000000000e+00
4.5000000000e-01 1.0000000000e-02 0.0000000000e+00
4.6000000000e-01 1.0000000000e-02 0.0000000000e+00
4.7000000000e-01 1.0000000000e-02 0.0000000000e+00
4.8000000000e-01 1.0000000000e-02 0.0000000000e+00
4.9000000000e-01 1.0000000000e-02 0.0000000000e+00
5.0000000000e-01 1.0000000000e-02 0.0000000000e+00
5.1000000000e-01 1.0000000000e-02 0.0000000000e+00
5.2000000000e-01 1.0000000000e-02 0.0000000000e+00
5.3000000000e-01 1.0000000000e-02 0.0000000000e+00
5.4000000000e-01 1.0000000000e-02 0.0000000000e+00
5.5000000000e-01 1.0000000000e-02 0.0000000000e+00
5.6000000000e-01 1.0000000000e-02 0.0000000000e+00
5.7000000000e-01 1.0000000000e-02 0.0000000000e+00
5.8000000000e-01 1.0000000000e-02 0.0000000000e+00
5.9000000000e-01 1.0000000000e-02 0.0000000000e+00
6.0000000000e-01 1.0000000000e-02 0.0000000000e+00
6.1000000000e-01 1.0000000000e-02 0.0000000000e+00
6.2000000000e-01 1.0000000000e-02 0.0000000000e+00
6.3000000000e-01 1.0000000000e-02 0.0000000000e+00
6.4000000000e-01 1.0000000000e-02 0.0000000000e+00
6.5000000000e-01 1.0000000000e-02 0.0000000000e+00
6.6000000000e-01 1.0000000000e-02 0.0000000000e+00
6.7000000000e-01 1.0000000000e-02 0.0000000000e+00
6.8000000000e-01 1.0000000000e-02 0.0000000000e+00
6.9000000000e-01 1.0000000000e-02 0.0000000000e+00
7.0000000000e-01 1.0000000000e-02 0.0000000000e+00
7.1000000000e-01 1.0000000000e-02 0.0000000000e+00
7.2000000000e-01 1.0000000000e-02 0.0000000000e+00
7.3000000000e-01 1.0000000000e-02 0.0000000000e+00
7.4000000000e-01 1.0000000000e-02 0.0000000000e+00
7.5000000000e-01 1.0000000000e-02 0.0000000000e+00
7.6000000000e-01 1.0000000000e-02 0.0000000000e+00
7.7000000000e-01 1.0000000000e-02 0.0000000000e+00
7.8000000000e-01 1.0000000000e-02 0.0000000000e+00
7.9000000000e-01 1.0000000000e-02 0.0000000000e+00
8.0000000000e-01 1.0000000000e-02 0.0000000000e+00
8.1000000000e-01 1.0000000000e-02 0.0000000000e+00
8.2000000000e-01 1.0000000000e-02 0.0000000000e+00
8.3000000000e-01 1.0000000000e-02 0.0000000000e+00
8.4000000000e-01 1.0000000000e-02 0.0000000000e+00
8.5000000000e-01 1.0000000000e-02 0.0000000000e+00
8.6000000000e-01 1.0000000000e-02 0.0000000000e+00
8.7000000000e-01 1.0000000000e-02 0.0000000000e+00
8.8000000000e-01 1.0000000000e-02 0.0000000000e+00
8.9000000000e-01 1.0000000000e-02 0.0000000000e+00
9.0000000000e-01 1.0000000000e-02 0.0000000000e+00
9.1000000000e-01 1.0000000000e-02 0.0000000000e+00
9.2000000000e-01 1.0000000000e-02 0.0000000000e+00
[...]
CELL_DATA 10000

SCALARS massDensity float
LOOKUP_TABLE default
1.2001897829e+00
1.2001638695e+00
1.2002129574e+00
1.2002781651e+00
1.2003593817e+00
1.2004561598e+00
1.2005676994e+00
1.2006928966e+00
1.2008303992e+00
1.2009786673e+00
1.2011360241e+00
1.2013007089e+00
1.2014709192e+00
1.2016448557e+00
1.2018207570e+00
1.2019969350e+00
1.2021718009e+00
1.2023438918e+00
1.2025118867e+00
1.2026746225e+00
1.2028311014e+00
1.2029804969e+00
1.2031221523e+00
1.2032555787e+00
1.2033804459e+00
1.2034965744e+00
1.2036039211e+00
1.2037025671e+00
1.2037927006e+00
1.2038746024e+00
1.2039486289e+00
1.2040151970e+00
1.2040747681e+00
1.2041278351e+00
1.2041749082e+00
1.2042165045e+00
1.2042531369e+00
1.2042853068e+00
1.2043134956e+00
1.2043381608e+00
1.2043597305e+00
1.2043786017e+00
1.2043951377e+00
1.2044096678e+00
1.2044224876e+00
1.2044338595e+00
1.2044440138e+00
1.2044531512e+00
1.2044614441e+00
1.2044690392e+00
1.2044760596e+00
1.2044826074e+00
1.2044887656e+00
1.2044946004e+00
1.2045001633e+00
1.2045054932e+00
1.2045106176e+00
1.2045155548e+00
1.2045203149e+00
1.2045249012e+00
1.2045293115e+00
1.2045335387e+00
1.2045375720e+00
1.2045413975e+00
1.2045449990e+00
1.2045483583e+00
1.2045514560e+00
1.2045542720e+00
1.2045567854e+00
1.2045589754e+00
1.2045608216e+00
1.2045623037e+00
1.2045634026e+00
1.2045641000e+00
1.2045643789e+00
1.2045642240e+00
1.2045636214e+00
1.2045625595e+00
1.2045610284e+00
1.2045590207e+00
1.2045565312e+00
1.2045535572e+00
1.2045500985e+00
1.2045461576e+00
1.2045417390e+00
1.2045368497e+00
1.2045314986e+00
1.2045256958e+00
1.2045194519e+00
1.2045127773e+00
1.2045056794e+00
1.2044981610e+00
1.2044902163e+00
1.2044818254e+00
1.2044729482e+00
1.2044635156e+00
1.2044534236e+00
1.2044425369e+00
1.2044307312e+00
1.2044403537e+00
1.2001638695e+00
1.2001269395e+00
1.2001703217e+00
1.2002320865e+00
1.2003113917e+00
1.2004072905e+00
1.2005186537e+00
1.2006441536e+00
1.2007822875e+00
1.2009314056e+00
1.2010897540e+00
1.2012555107e+00
1.2014268292e+00
1.2016018726e+00
1.2017788527e+00
1.2019560576e+00
1.2021318829e+00
1.2023048510e+00
1.2024736329e+00
1.2026370579e+00
1.2027941260e+00
1.2029440078e+00
1.2030860486e+00
1.2032197599e+00
1.2033448158e+00
1.2034610395e+00
1.2035683933e+00
1.2036669617e+00
1.2037569383e+00
1.2038386077e+00
1.2039123312e+00
1.2039785291e+00
1.2040376671e+00
1.2040902407e+00
1.2041367639e+00
1.2041777562e+00
1.2042137335e+00
1.2042451993e+00
1.2042726379e+00
1.2042965088e+00
1.2043172430e+00
1.2043352397e+00
1.2043508653e+00
1.2043644521e+00
1.2043762986e+00
1.2043866706e+00
1.2043958025e+00
1.2044038987e+00
1.2044111360e+00
1.2044176657e+00
1.2044236157e+00
1.2044290933e+00
1.2044341868e+00
1.2044389682e+00
1.2044434949e+00
1.2044478117e+00
1.2044519526e+00
1.2044559421e+00
1.2044597968e+00
1.2044635268e+00
1.2044671361e+00
1.2044706244e+00
1.2044739873e+00
1.2044772173e+00
1.2044803044e+00
1.2044832364e+00
1.2044859998e+00
1.2044885796e+00
1.2044909603e+00
1.2044931257e+00
1.2044950595e+00
1.2044967454e+00
1.2044981672e+00
1.2044993095e+00
1.2045001572e+00
1.2045006963e+00
1.2045009138e+00
1.2045007979e+00
1.2045003380e+00
1.2044995251e+00
1.2044983518e+00
1.2044968124e+00
1.2044949028e+00
1.2044926208e+00
1.2044899657e+00
1.2044869386e+00
1.2044835418e+00
1.2044797786e+00
1.2044756528e+00
1.2044711681e+00
1.2044663268e+00
1.2044611286e+00
1.2044555693e+00
1.2044496383e+00
1.2044433179e+00
1.2044365822e+00
1.2044294018e+00
1.2044217574e+00
1.2044136772e+00
1.2044296118e+00
1.2002129574e+00
1.2001703217e+00
1.2002107890e+00
1.2002703192e+00
1.2003478289e+00
1.2004421875e+00
1.2005521362e+00
1.2006762676e+00
1.2008130265e+00
1.2009607380e+00
1.2011176325e+00
1.2012818872e+00
1.2014516566e+00
1.2016251137e+00
1.2018004782e+00
1.2019760522e+00
1.2021502416e+00
1.2023215836e+00
1.2024887594e+00
1.2026506120e+00
1.2028061496e+00
1.2029545543e+00
1.2030951772e+00
1.2032275379e+00
1.2033513139e+00
1.2034663330e+00
1.2035725580e+00
1.2036700752e+00
1.2037590763e+00
1.2038398453e+00
1.2039127397e+00
1.2039781771e+00
1.2040366185e+00
1.2040885560e+00
1.2041344980e+00
1.2041749598e+00
1.2042104523e+00
1.2042414748e+00
1.2042685069e+00
1.2042920043e+00
1.2043123941e+00
1.2043300725e+00
1.2043454025e+00
1.2043587141e+00
1.2043703038e+00
1.2043804355e+00
1.2043893423e+00
1.2043972276e+00
1.2044042676e+00
1.2044106132e+00
1.2044163923e+00
1.2044217122e+00
1.2044266619e+00
1.2044313137e+00
1.2044357260e+00
1.2044399443e+00
1.2044440036e+00
1.2044479294e+00
1.2044517397e+00
1.2044554452e+00
1.2044590516e+00
1.2044625593e+00
1.2044659652e+00
1.2044692627e+00
1.2044724426e+00
1.2044754936e+00
1.2044784029e+00
1.2044811559e+00
1.2044837376e+00
1.2044861318e+00
1.2044883223e+00
1.2044902925e+00
1.2044920261e+00
1.2044935066e+00
1.2044947184e+00
1.2044956463e+00
1.2044962762e+00
1.2044965943e+00
1.2044965888e+00
1.2044962485e+00
1.2044955639e+00
1.2044945268e+00
1.2044931307e+00
1.2044913704e+00
1.2044892428e+00
1.2044867455e+00
1.2044838781e+00
1.2044806407e+00
1.2044770344e+00
1.2044730603e+00
1.2044687194e+00
1.2044640112e+00
1.2044589340e+00
1.2044534842e+00
1.2044476571e+00
1.2044414505e+00
1.2044348724e+00
1.2044279587e+00
1.2044208066e+00
1.2044403469e+00
1.2002781651e+00
1.2002320865e+00
1.2002703192e+00
1.2003277480e+00
1.2004032692e+00
1.2004956918e+00
1.2006037035e+00
1.2007258525e+00
1.2008605605e+00
1.2010061372e+00
1.2011608144e+00
1.2013227721e+00
1.2014901797e+00
1.2016612224e+00
1.2018341407e+00
1.2020072529e+00
1.2021789870e+00
1.2023478964e+00
1.2025126828e+00
1.2026722032e+00
1.2028254833e+00
1.2029717153e+00
1.2031102632e+00
1.2032406530e+00
1.2033625700e+00
1.2034758443e+00
1.2035804421e+00
1.2036764480e+00
1.2037640534e+00
1.2038435377e+00
1.2039152550e+00
1.2039796164e+00
1.2040370776e+00
1.2040881228e+00
1.2041332543e+00
1.2041729796e+00
1.2042078028e+00
1.2042382159e+00
1.2042646922e+00
1.2042876810e+00
1.2043076039e+00
1.2043248516e+00
1.2043397829e+00
1.2043527234e+00
1.2043639664e+00
1.2043737728e+00
1.2043823734e+00
1.2043899697e+00
1.2043967365e+00
1.2044028239e+00
1.2044083593e+00
1.2044134498e+00
1.2044181844e+00
1.2044226362e+00
1.2044268639e+00
1.2044309143e+00
1.2044348233e+00
1.2044386177e+00
1.2044423166e+00
1.2044459325e+00
1.2044494720e+00
1.2044529374e+00
1.2044563266e+00
1.2044596348e+00
1.2044628538e+00
1.2044659738e+00
1.2044689825e+00
1.2044718670e+00
1.2044746123e+00
1.2044772035e+00
1.2044796242e+00
1.2044818583e+00
1.2044838891e+00
1.2044857003e+00
1.2044872753e+00
1.2044885983e+00
1.2044896538e+00
1.2044904272e+00
1.2044909044e+00
1.2044910729e+00
1.2044909205e+00
1.2044904372e+00
1.2044896133e+00
1.2044884413e+00
1.2044869144e+00
1.2044850278e+00
1.2044827771e+00
1.2044801599e+00
1.2044771739e+00
1.2044738180e+00
1.2044700909e+00
1.2044659923e+00
1.2044615216e+00
1.2044566797e+00
1.2044514700e+00
1.2044459032e+00
1.2044400040e+00
1.2044338244e+00
1.2044274632e+00
1.2044502571e+00
1.2003593817e+00
1.2003113917e+00
1.2003478289e+00
1.2004032692e+00
1.2004766648e+00
1.2005668363e+00
1.2006724618e+00
1.2007920849e+00
1.2009241219e+00
1.2010668904e+00
1.2012186301e+00
1.2013775417e+00
1.2015418119e+00
1.2017096539e+00
1.2018793304e+00
1.2020491894e+00
1.2022176820e+00
1.2023833898e+00
1.2025450352e+00
1.2027014996e+00
1.2028518244e+00
1.2029952212e+00
1.2031310644e+00
1.2032588927e+00
1.2033783966e+00
1.2034894125e+00
1.2035919066e+00
1.2036859647e+00
1.2037717736e+00
1.2038496095e+00
1.2039198188e+00
1.2039828065e+00
1.2040390186e+00
1.2040889313e+00
1.2041330364e+00
1.2041718326e+00
1.2042058141e+00
1.2042354638e+00
1.2042612462e+00
1.2042836024e+00
1.2043029461e+00
1.2043196614e+00
1.2043341006e+00
1.2043465840e+00
1.2043573999e+00
1.2043668054e+00
1.2043750278e+00
1.2043822660e+00
1.2043886927e+00
1.2043944565e+00
1.2043996838e+00
1.2044044811e+00
1.2044089376e+00
1.2044131264e+00
1.2044171070e+00
1.2044209268e+00
1.2044246231e+00
1.2044282239e+00
1.2044317499e+00
1.2044352149e+00
1.2044386276e+00
1.2044419915e+00
1.2044453069e+00
1.2044485699e+00
1.2044517747e+00
1.2044549123e+00
1.2044579727e+00
1.2044609433e+00
1.2044638114e+00
1.2044665619e+00
1.2044691802e+00
1.2044716499e+00
1.2044739553e+00
1.2044760794e+00
1.2044780060e+00
1.2044797182e+00
1.2044812003e+00
1.2044824358e+00
1.2044834101e+00
1.2044841079e+00
1.2044845161e+00
1.2044846213e+00
1.2044844121e+00
1.2044838775e+00
1.2044830082e+00
1.2044817955e+00
1.2044802326e+00
1.2044783128e+00
1.2044760314e+00
1.2044733840e+00
1.2044703675e+00
1.2044669797e+00
1.2044632205e+00
1.2044590919e+00
1.2044546008e+00
1.2044497622e+00
1.2044446045e+00
1.2044391768e+00
1.2044335585e+00
1.2044594254e+00
1.2004561598e+00
1.2004072905e+00
1.2004421875e+00
1.2004956918e+00
1.2005668363e+00
1.2006544795e+00
1.2007573258e+00
1.2008739327e+00
1.2010027375e+00
1.2011420748e+00
1.2012902127e+00
1.2014453761e+00
1.2016057868e+00
1.2017696869e+00
1.2019353771e+00
1.2021012353e+00
1.2022657495e+00
1.2024275290e+00
1.2025853286e+00
1.2027380524e+00
1.2028847683e+00
1.2030247040e+00
1.2031572526e+00
1.2032819624e+00
1.2033985345e+00
1.2035068084e+00
1.2036067539e+00
1.2036984537e+00
1.2037820927e+00
1.2038579393e+00
1.2039263335e+00
1.2039876695e+00
1.2040423841e+00
1.2040909410e+00
1.2041338215e+00
1.2041715114e+00
1.2042044940e+00
1.2042332403e+00
1.2042582042e+00
1.2042798164e+00
1.2042984813e+00
1.2043145742e+00
1.2043284397e+00
1.2043403912e+00
1.2043507109e+00
1.2043596509e+00
1.2043674341e+00
1.2043742558e+00
1.2043802861e+00
1.2043856713e+00
1.2043905363e+00
1.2043949871e+00
1.2043991119e+00
1.2044029843e+00
1.2044066640e+00
1.2044101995e+00
1.2044136289e+00
1.2044169819e+00
1.2044202804e+00
1.2044235403e+00
1.2044267716e+00
1.2044299804e+00
1.2044331682e+00
1.2044363337e+00
1.2044394724e+00
1.2044425779e+00
1.2044456412e+00
1.2044486522e+00
1.2044515986e+00
1.2044544678e+00
1.2044572452e+00
1.2044599164e+00
1.2044624651e+00
1.2044648759e+00
1.2044671316e+00
1.2044692161e+00
1.2044711121e+00
1.2044728036e+00
1.2044742734e+00
1.2044755061e+00
1.2044764856e+00
1.2044771974e+00
1.2044776267e+00
1.2044777606e+00
1.2044775862e+00
1.2044770924e+00
1.2044762681e+00
1.2044751042e+00
1.2044735919e+00
1.2044717242e+00
1.2044694948e+00
1.2044668998e+00
1.2044639368e+00
1.2044606073e+00
1.2044569176e+00
1.2044528815e+00
1.2044485238e+00
1.2044438840e+00
1.2044390189e+00
1.2044678653e+00
1.2005676994e+00
1.2005186537e+00
1.2005521362e+00
1.2006037035e+00
1.2006724618e+00
1.2007573258e+00
1.2008570365e+00
1.2009701892e+00
1.2010952504e+00
1.2012305930e+00
1.2013745174e+00
1.2015252916e+00
1.2016811735e+00
1.2018404515e+00
1.2020014636e+00
1.2021626332e+00
1.2023224835e+00
1.2024796652e+00
1.2026329633e+00
1.2027813165e+00
1.2029238155e+00
1.2030597141e+00
1.2031884203e+00
1.2033094993e+00
1.2034226589e+00
1.2035277467e+00
1.2036247318e+00
1.2037136975e+00
1.2037948220e+00
1.2038683681e+00
1.2039346648e+00
1.2039940966e+00
1.2040470866e+00
1.2040940864e+00
1.2041355624e+00
1.2041719876e+00
1.2042038306e+00
1.2042315496e+00
1.2042555854e+00
1.2042763568e+00
1.2042942569e+00
1.2043096509e+00
1.2043228740e+00
1.2043342315e+00
1.2043439984e+00
1.2043524205e+00
1.2043597154e+00
1.2043660742e+00
1.2043716635e+00
1.2043766268e+00
1.2043810871e+00
1.2043851489e+00
1.2043889001e+00
1.2043924135e+00
1.2043957496e+00
1.2043989572e+00
1.2044020758e+00
1.2044051359e+00
1.2044081615e+00
1.2044111697e+00
1.2044141731e+00
1.2044171791e+00
1.2044201921e+00
1.2044232121e+00
1.2044262374e+00
1.2044292631e+00
1.2044322829e+00
1.2044352877e+00
1.2044382681e+00
1.2044412119e+00
1.2044441071e+00
1.2044469394e+00
1.2044496946e+00
1.2044523569e+00
1.2044549107e+00
1.2044573388e+00
1.2044596251e+00
1.2044617516e+00
1.2044637019e+00
1.2044654580e+00
1.2044670035e+00
1.2044683210e+00
1.2044693947e+00
1.2044702081e+00
1.2044707467e+00
1.2044709951e+00
1.2044709403e+00
1.2044705687e+00
1.2044698692e+00
1.2044688305e+00
1.2044674440e+00
1.2044657018e+00
1.2044635994e+00
1.2044611351e+00
1.2044583125e+00
1.2044551409e+00
1.2044516384e+00
1.2044478329e+00
1.2044437622e+00
1.2044755157e+00
1.2006928966e+00
1.2006441536e+00
1.2006762676e+00
1.2007258525e+00
1.2007920849e+00
1.2008739327e+00
1.2009701892e+00
1.2010794913e+00
1.2012003541e+00
1.2013311914e+00
1.2014703551e+00
1.2016161567e+00
1.2017669086e+00
1.2019209436e+00
1.2020766541e+00
1.2022325065e+00
1.2023870744e+00
1.2025390465e+00
1.2026872513e+00
1.2028306579e+00
1.2029683915e+00
1.2030997273e+00
1.2032240974e+00
1.2033410787e+00
1.2034503931e+00
1.2035518910e+00
1.2036455460e+00
1.2037314367e+00
1.2038097381e+00
1.2038807027e+00
1.2039446503e+00
1.2040019512e+00
1.2040530156e+00
1.2040982789e+00
1.2041381930e+00
1.2041732139e+00
1.2042037956e+00
1.2042303804e+00
1.2042533949e+00
1.2042732440e+00
1.2042903082e+00
1.2043049407e+00
1.2043174665e+00
1.2043281812e+00
1.2043373517e+00
1.2043452163e+00
1.2043519868e+00
1.2043578490e+00
1.2043629651e+00
1.2043674757e+00
1.2043715011e+00
1.2043751441e+00
1.2043784912e+00
1.2043816154e+00
1.2043845765e+00
1.2043874243e+00
1.2043901986e+00
1.2043929318e+00
1.2043956487e+00
1.2043983689e+00
1.2044011062e+00
1.2044038707e+00
1.2044066680e+00
1.2044095016e+00
1.2044123709e+00
1.2044152741e+00
1.2044182062e+00
1.2044211612e+00
1.2044241307e+00
1.2044271054e+00
1.2044300739e+00
1.2044330244e+00
1.2044359431e+00
1.2044388162e+00
1.2044416277e+00
1.2044443624e+00
1.2044470028e+00
1.2044495325e+00
1.2044519329e+00
1.2044541870e+00
1.2044562756e+00
1.2044581816e+00
1.2044598858e+00
1.2044613711e+00
1.2044626190e+00
1.2044636131e+00
1.2044643358e+00
1.2044647720e+00
1.2044649057e+00
1.2044647236e+00
1.2044642123e+00
1.2044633615e+00
1.2044621622e+00
1.2044606095e+00
1.2044587018e+00
1.2044564432e+00
1.2044538438e+00
1.2044509205e+00
1.2044476957e+00
1.2044822628e+00
1.2008303992e+00
1.2007822875e+00
1.2008130265e+00
1.2008605605e+00
1.2009241219e+00
1.2010027375e+00
1.2010952504e+00
1.2012003541e+00
1.2013166122e+00
1.2014424973e+00
1.2015764118e+00
1.2017167287e+00
1.2018618124e+00
1.2020100581e+00
1.2021599086e+00
1.2023098897e+00
1.2024586210e+00
1.2026048439e+00
1.2027474255e+00
1.2028853780e+00
1.2030178556e+00
1.2031441656e+00
1.2032637584e+00
1.2033762316e+00
1.2034813149e+00
1.2035788685e+00
1.2036688647e+00
1.2037513824e+00
1.2038265877e+00
1.2038947259e+00
1.2039561031e+00
1.2040110768e+00
1.2040600403e+00
1.2041034135e+00
1.2041416298e+00
1.2041751289e+00
1.2042043464e+00
1.2042297085e+00
1.2042516253e+00
1.2042704867e+00
1.2042866588e+00
1.2043004822e+00
1.2043122696e+00
1.2043223064e+00
1.2043308500e+00
1.2043381308e+00
1.2043443534e+00
1.2043496978e+00
1.2043543216e+00
1.2043583611e+00
1.2043619340e+00
1.2043651406e+00
1.2043680662e+00
1.2043707826e+00
1.2043733498e+00
1.2043758173e+00
1.2043782261e+00
1.2043806091e+00
1.2043829931e+00
1.2043853985e+00
1.2043878418e+00
1.2043903342e+00
1.2043928846e+00
1.2043954973e+00
1.2043981754e+00
1.2044009181e+00
1.2044037239e+00
1.2044065879e+00
1.2044095047e+00
1.2044124662e+00
1.2044154640e+00
1.2044184868e+00
1.2044215236e+00
1.2044245606e+00
1.2044275845e+00
1.2044305793e+00
1.2044335297e+00
1.2044364180e+00
1.2044392273e+00
1.2044419385e+00
1.2044445338e+00
1.2044469929e+00
1.2044492974e+00
1.2044514267e+00
1.2044533621e+00
1.2044550831e+00
1.2044565714e+00
1.2044578073e+00
1.2044587732e+00
1.2044594511e+00
1.2044598254e+00
1.2044598810e+00
1.2044596059e+00
1.2044589896e+00
1.2044580264e+00
1.2044567134e+00
1.2044550533e+00
1.2044530529e+00
1.2044507228e+00
1.2044879639e+00
1.2009786673e+00
1.2009314056e+00
1.2009607380e+00
1.2010061372e+00
1.2010668904e+00
1.2011420748e+00
1.2012305930e+00
1.2013311914e+00
1.2014424973e+00
1.2015630391e+00
1.2016912867e+00
1.2018256713e+00
1.2019646263e+00
1.2021066047e+00
1.2022501167e+00
1.2023937419e+00
1.2025361614e+00
1.2026761635e+00
1.2028126675e+00
1.2029447227e+00
1.2030715240e+00
1.2031924045e+00
1.2033068429e+00
1.2034144508e+00
1.2035149740e+00
1.2036082759e+00
1.2036943339e+00
1.2037732209e+00
1.2038450991e+00
1.2039102009e+00
1.2039688214e+00
1.2040213011e+00
1.2040680177e+00
1.2041093718e+00
1.2041457792e+00
1.2041776595e+00
1.2042054305e+00
1.2042294995e+00
1.2042502595e+00
1.2042680837e+00
1.2042833230e+00
1.2042963036e+00
1.2043073256e+00
1.2043166627e+00
1.2043245621e+00
1.2043312453e+00
1.2043369092e+00
1.2043417272e+00
1.2043458515e+00
1.2043494140e+00
1.2043525288e+00
1.2043552939e+00
1.2043577923e+00
1.2043600948e+00
1.2043622607e+00
1.2043643397e+00
1.2043663729e+00
1.2043683943e+00
1.2043704313e+00
1.2043725067e+00
1.2043746375e+00
1.2043768380e+00
1.2043791178e+00
1.2043814848e+00
1.2043839429e+00
1.2043864948e+00
1.2043891401e+00
1.2043918774e+00
1.2043947022e+00
1.2043976100e+00
1.2044005928e+00
1.2044036429e+00
1.2044067494e+00
1.2044099018e+00
1.2044130865e+00
1.2044162904e+00
1.2044194975e+00
1.2044226926e+00
1.2044258573e+00
1.2044289747e+00
1.2044320247e+00
1.2044349887e+00
1.2044378455e+00
1.2044405754e+00
1.2044431561e+00
1.2044455675e+00
1.2044477872e+00
1.2044497948e+00
1.2044515686e+00
1.2044530889e+00
1.2044543355e+00
1.2044552908e+00
1.2044559376e+00
1.2044562621e+00
1.2044562521e+00
1.2044558995e+00
1.2044551991e+00
1.2044541496e+00
1.2044527513e+00
1.2044924687e+00
1.2011360241e+00
1.2010897540e+00
1.2011176325e+00
1.2011608144e+00
1.2012186301e+00
1.2012902127e+00
1.2013745174e+00
1.2014703551e+00
1.2015764118e+00
1.2016912867e+00
1.2018135122e+00
1.2019415941e+00
1.2020740293e+00
1.2022093449e+00
1.2023461120e+00
1.2024829801e+00
1.2026186850e+00
1.2027520759e+00
1.2028821175e+00
1.2030079089e+00
1.2031286787e+00
1.2032437965e+00
1.2033527623e+00
1.2034552109e+00
1.2035508973e+00
1.2036396955e+00
1.2037215813e+00
1.2037966277e+00
1.2038649864e+00
1.2039268816e+00
1.2039825922e+00
1.2040324441e+00
1.2040767955e+00
1.2041160289e+00
1.2041505390e+00
1.2041807264e+00
1.2042069878e+00
1.2042297122e+00
1.2042492730e+00
1.2042660265e+00
1.2042803067e+00
1.2042924251e+00
1.2043026677e+00
1.2043112960e+00
1.2043185461e+00
1.2043246299e+00
1.2043297359e+00
1.2043340305e+00
1.2043376598e+00
1.2043407508e+00
1.2043434137e+00
1.2043457430e+00
1.2043478202e+00
1.2043497139e+00
1.2043514828e+00
1.2043531759e+00
1.2043548348e+00
1.2043564937e+00
1.2043581813e+00
1.2043599208e+00
1.2043617318e+00
1.2043636290e+00
1.2043656252e+00
1.2043677289e+00
1.2043699473e+00
1.2043722842e+00
1.2043747425e+00
1.2043773217e+00
1.2043800211e+00
1.2043828366e+00
1.2043857641e+00
1.2043887962e+00
1.2043919257e+00
1.2043951421e+00
1.2043984352e+00
1.2044017916e+00
1.2044051986e+00
1.2044086399e+00
1.2044121003e+00
1.2044155612e+00
1.2044190051e+00
1.2044224114e+00
1.2044257605e+00
1.2044290303e+00
1.2044321998e+00
1.2044352454e+00
1.2044381454e+00
1.2044408756e+00
1.2044434138e+00
1.2044457362e+00
1.2044478212e+00
1.2044496464e+00
1.2044511922e+00
1.2044524392e+00
1.2044533713e+00
1.2044539737e+00
1.2044542353e+00
1.2044541469e+00
1.2044537012e+00
1.2044956348e+00
1.2013007089e+00
1.2012555107e+00
1.2012818872e+00
1.2013227721e+00
1.2013775417e+00
1.2014453761e+00
1.2015252916e+00
1.2016161567e+00
1.2017167287e+00
1.2018256713e+00
1.2019415941e+00
1.2020630705e+00
1.2021886768e+00
1.2023170068e+00
1.2024467082e+00
1.2025764924e+00
1.2027051643e+00
1.2028316267e+00
1.2029549026e+00
1.2030741329e+00
1.2031885917e+00
1.2032976774e+00
1.2034009212e+00
1.2034979737e+00
1.2035886073e+00
1.2036726998e+00
1.2037502320e+00
1.2038212705e+00
1.2038859621e+00
1.2039445168e+00
1.2039972010e+00
1.2040443217e+00
1.2040862197e+00
1.2041232558e+00
1.2041558052e+00
1.2041842460e+00
1.2042089554e+00
1.2042303006e+00
1.2042486367e+00
1.2042643006e+00
1.2042776098e+00
1.2042888592e+00
1.2042983208e+00
1.2043062428e+00
1.2043128498e+00
1.2043183433e+00
1.2043229030e+00
1.2043266876e+00
1.2043298365e+00
1.2043324717e+00
1.2043346988e+00
1.2043366091e+00
1.2043382808e+00
1.2043397812e+00
1.2043411674e+00
1.2043424879e+00
1.2043437837e+00
1.2043450897e+00
1.2043464347e+00
1.2043478434e+00
1.2043493357e+00
1.2043509288e+00
1.2043526359e+00
1.2043544686e+00
1.2043564346e+00
1.2043585410e+00
1.2043607914e+00
1.2043631889e+00
1.2043657333e+00
1.2043684243e+00
1.2043712582e+00
1.2043742315e+00