# vtk DataFile Version 2.0
Blank
ASCII
DATASET STRUCTURED_GRID
DIMENSIONS 101 101 2
POINTS 20402 float
0.0000000000e+00 0.0000000000e+00 0.0000000000e+00
1.0000000000e-02 0.0000000000e+00 0.0000000000e+00
2.0000000000e-02 0.0000000000e+00 0.0000000000e+00
3.0000000000e-02 0.0000000000e+00 0.0000000000e+00
4.0000000000e-02 0.0000000000e+00 0.0000000000e+00
5.0000000000e-02 0.0000000000e+00 0.0000000000e+00
6.0000000000e-02 0.0000000000e+00 0.0000000000e+00
7.0000000000e-02 0.0000000000e+00 0.0000000000e+00
8.0000000000e-02 0.0000000000e+00 0.0000000000e+00
9.0000000000e-02 0.0000000000e+00 0.0000000000e+00
1.0000000000e-01 0.0000000000e+00 0.0000000000e+00
1.1000000000e-01 0.0000000000e+00 0.0000000000e+00
1.2000000000e-01 0.0000000000e+00 0.0000000000e+00
1.3000000000e-01 0.0000000000e+00 0.0000000000e+00
1.4000000000e-01 0.0000000000e+00 0.0000000000e+00
1.5000000000e-01 0.0000000000e+00 0.0000000000e+00
1.6000000000e-01 0.0000000000e+00 0.0000000000e+00
1.7000000000e-01 0.0000000000e+00 0.0000000000e+00
1.8000000000e-01 0.0000000000e+00 0.0000000000e+00
1.9000000000e-01 0.0000000000e+00 0.0000000000e+00
2.0000000000e-01 0.0000000000e+00 0.0000000000e+00
2.1000000000e-01 0.0000000000e+00 0.0000000000e+00
2.2000000000e-01 0.0000000000e+00 0.0000000000e+00
2.3000000000e-01 0.0000000000e+00 0.0000000000e+00
2.4000000000e-01 0.0000000000e+00 0.0000000000e+00
2.5000000000e-01 0.0000000000e+00 0.0000000000e+00
2.6000000000e-01 0.0000000000e+00 0.0000000000e+00
2.7000000000e-01 0.0000000000e+00 0.0000000000e+00
2.8000000000e-01 0.0000000000e+00 0.0000000000e+00
2.9000000000e-01 0.0000000000e+00 0.0000000000e+00
3.0000000000e-01 0.0000000000e+00 0.0000000000e+00
3.1000000000e-01 0.0000000000e+00 0.0000000000e+00
3.2000000000e-01 0.0000000000e+00 0.0000000000e+00
3.3000000000e-01 0.0000000000e+00 0.0000000000e+00
3.4000000000e-01 0.0000000000e+00 0.0000000000e+00
3.5000000000e-01 0.0000000000e+00 0.0000000000e+00
3.6000000000e-01 0.0000000000e+00 0.0000000000e+00
3.7000000000e-01 0.0000000000e+00 0.0000000000e+00
3.8000000000e-01 0.0000000000e+00 0.0000000000e+00
3.9000000000e-01 0.0000000000e+00 0.0000000000e+00
4.0000000000e-01 0.0000000000e+00 0.0000000000e+00
4.1000000000e-01 0.0000000000e+00 0.0000000000e+00
4.2000000000e-01 0.0000000000e+00 0.0000000000e+00
4.3000000000e-01 0.0000000000e+00 0.0000000000e+00
4.4000000000e-01 0.0000000000e+00 0.0000000000e+00
4.5000000000e-01 0.0000000000e+00 0.0000000000e+00
4.6000000000e-01 0.0000000000e+00 0.0000000000e+00
4.7000000000e-01 0.0000000000e+00 0.0000000000e+00
4.8000000000e-01 0.0000000000e+00 0.0000000000e+00
4.9000000000e-01 0.0000000000e+00 0.0000000000e+00
5.0000000000e-01 0.0000000000e+00 0.0000000000e+00
5.1000000000e-01 0.0000000000e+00 0.0000000000e+00
5.2000000000e-01 0.0000000000e+00 0.0000000000e+00
5.3000000000e-01 0.0000000000e+00 0.0000000000e+00
5.4000000000e-01 0.0000000000e+00 0.0000000000e+00
5.5000000000e-01 0.0000000000e+00 0.0000000000e+00
5.6000000000e-01 0.0000000000e+00 0.0000000000e+00
5.7000000000e-01 0.0000000000e+00 0.0000000000e+00
5.8000000000e-01 0.0000000000e+00 0.0000000000e+00
5.9000000000e-01 0.0000000000e+00 0.0000000000e+00
6.0000000000e-01 0.0000000000e+00 0.0000000000e+00
6.1000000000e-01 0.0000000000e+00 0.0000000000e+00
6.2000000000e-01 0.0000000000e+00 0.0000000000e+00
6.3000000000e-01 0.0000000000e+00 0.0000000000e+00
6.4000000000e-01 0.0000000000e+00 0.0000000000e+00
6.5000000000e-01 0.0000000000e+00 0.0000000000e+00
6.6000000000e-01 0.0000000000e+00 0.0000000000e+00
6.7000000000e-01 0.0000000000e+00 0.0000000000e+00
6.8000000000e-01 0.0000000000e+00 0.0000000000e+00
6.9000000000e-01 0.0000000000e+00 0.0000000000e+00
7.0000000000e-01 0.0000000000e+00 0.0000000000e+00
7.1000000000e-01 0.0000000000e+00 0.0000000000e+00
7.2000000000e-01 0.0000000000e+00 0.0000000000e+00
7.3000000000e-01 0.0000000000e+00 0.0000000000e+00
7.4000000000e-01 0.0000000000e+00 0.0000000000e+00
7.5000000000e-01 0.0000000000e+00 0.0000000000e+00
7.6000000000e-01 0.0000000000e+00 0.0000000000e+00
7.7000000000e-01 0.0000000000e+00 0.0000000000e+00
7.8000000000e-01 0.0000000000e+00 0.0000000000e+00
7.9000000000e-01 0.0000000000e+00 0.0000000000e+00
8.0000000000e-01 0.0000000000e+00 0.0000000000e+00
8.1000000000e-01 0.0000000000e+00 0.0000000000e+00
8.2000000000e-01 0.0000000000e+00 0.0000000000e+00
8.3000000000e-01 0.0000000000e+00 0.0000000000e+00
8.4000000000e-01 0.0000000000e+00 0.0000000000e+00
8.5000000000e-01 0.0000000000e+00 0.0000000000e+00
8.6000000000e-01 0.0000000000e+00 0.0000000000e+00
8.7000000000e-01 0.0000000000e+00 0.0000000000e+00
8.8000000000e-01 0.0000000000e+00 0.0000000000e+00
8.9000000000e-01 0.0000000000e+00 0.0000000000e+00
9.0000000000e-01 0.0000000000e+00 0.0000000000e+00
9.1000000000e-01 0.0000000000e+00 0.0000000000e+00
9.2000000000e-01 0.0000000000e+00 0.0000000000e+00
9.3000000000e-01 0.0000000000e+00 0.0000000000e+00
9.4000000000e-01 0.0000000000e+00 0.0000000000e+00
9.5000000000e-01 0.0000000000e+00 0.0000000000e+00
9.6000000000e-01 0.0000000000e+00 0.0000000000e+00
9.7000000000e-01 0.0000000000e+00 0.0000000000e+00
9.8000000000e-01 0.0000000000e+00 0.0000000000e+00
9.9000000000e-01 0.0000000000e+00 0.0000000000e+00
1.0000000000e+00 0.0000000000e+00 0.0000000000e+00
0.0000000000e+00 1.0000000000e-02 0.0000000000e+00
1.0000000000e-02 1.0000000000e-02 0.0000000000e+00
2.0000000000e-02 1.0000000000e-02 0.0000000000e+00
3.0000000000e-02 1.0000000000e-02 0.0000000000e+00
4.0000000000e-02 1.0000000000e-02 0.0000000000e+00
5.0000000000e-02 1.0000000000e-02 0.0000000000e+00
6.0000000000e-02 1.0000000000e-02 0.0000000000e+00
7.0000000000e-02 1.0000000000e-02 0.0000000000e+00
8.0000000000e-02 1.0000000000e-02 0.0000000000e+00
9.0000000000e-02 1.0000000000e-02 0.0000000000e+00
1.0000000000e-01 1.0000000000e-02 0.0000000000e+00
1.1000000000e-01 1.0000000000e-02 0.0000000000e+00
1.2000000000e-01 1.0000000000e-02 0.0000000000e+00
1.3000000000e-01 1.0000000000e-02 0.0000000000e+00
1.4000000000e-01 1.0000000000e-02 0.0000000000e+00
1.5000000000e-01 1.0000000000e-02 0.0000000000e+00
1.6000000000e-01 1.0000000000e-02 0.0000000000e+00
1.7000000000e-01 1.0000000000e-02 0.0000000000e+00
1.8000000000e-01 1.0000000000e-02 0.0000000000e+00
1.9000000000e-01 1.0000000000e-02 0.0000000000e+00
2.0000000000e-01 1.0000000000e-02 0.0000000000e+00
2.1000000000e-01 1.0000000000e-02 0.0000000000e+00
2.2000000000e-01 1.0000000000e-02 0.0000000000e+00
2.3000000000e-01 1.0000000000e-02 0.0000000000e+00
2.4000000000e-01 1.0000000000e-02 0.0000000000e+00
2.5000000000e-01 1.0000000000e-02 0.0000000000e+00
2.6000000000e-01 1.0000000000e-02 0.0000000000e+00
2.7000000000e-01 1.0000000000e-02 0.0000000000e+00
2.8000000000e-01 1.0000000000e-02 0.0000000000e+00
2.9000000000e-01 1.0000000000e-02 0.0000000000e+00
3.0000000000e-01 1.0000000000e-02 0.0000000000e+00
3.1000000000e-01 1.0000000000e-02 0.0000000000e+00
3.2000000000e-01 1.0000000000e-02 0.0000000000e+00
3.3000000000e-01 1.0000000000e-02 0.0000000000e+00
3.4000000000e-01 1.0000000000e-02 0.0000000000e+00
3.5000000000e-01 1.0000000000e-02 0.0000000000e+00
3.6000000000e-01 1.0000000000e-02 0.0000000000e+00
3.7000000000e-01 1.0000000000e-02 0.0000000000e+00
3.8000000000e-01 1.0000000000e-02 0.0000000000e+00
3.9000000000e-01 1.0000000000e-02 0.0000000000e+00
4.0000000000e-01 1.0000000000e-02 0.0000000000e+00
4.1000000000e-01 1.0000000000e-02 0.0000000000e+00
4.2000000000e-01 1.0000000000e-02 0.0000000000e+00
4.3000000000e-01 1.0000000000e-02 0.0000000000e+00
4.4000000000e-01 1.0000000000e-02 0.0000000000e+00
4.5000000000e-01 1.0000000000e-02 0.0000000000e+00
4.6000000000e-01 1.0000000000e-02 0.0000000000e+00
4.7000000000e-01 1.0000000000e-02 0.0000000000e+00
4.8000000000e-01 1.0000000000e-02 0.0000000000e+00
4.9000000000e-01 1.0000000000e-02 0.0000000000e+00
5.0000000000e-01 1.0000000000e-02 0.0000000000e+00
5.1000000000e-01 1.0000000000e-02 0.0000000000e+00
5.2000000000e-01 1.0000000000e-02 0.0000000000e+00
5.3000000000e-01 1.0000000000e-02 0.0000000000e+00
5.4000000000e-01 1.0000000000e-02 0.0000000000e+00
5.5000000000e-01 1.0000000000e-02 0.0000000000e+00
5.6000000000e-01 1.0000000000e-02 0.0000000000e+00
5.7000000000e-01 1.0000000000e-02 0.0000000000e+00
5.8000000000e-01 1.0000000000e-02 0.0000000000e+00
5.9000000000e-01 1.0000000000e-02 0.0000000000e+00
6.0000000000e-01 1.0000000000e-02 0.0000000000e+00
6.1000000000e-01 1.0000000000e-02 0.0000000000e+00
6.2000000000e-01 1.0000000000e-02 0.0000000000e+00
6.3000000000e-01 1.0000000000e-02 0.0000000000e+00
6.4000000000e-01 1.0000000000e-02 0.0000000000e+00
6.5000000000e-01 1.0000000000e-02 0.0000000000e+00
6.6000000000e-01 1.0000000000e-02 0.0000000000e+00
6.7000000000e-01 1.0000000000e-02 0.0000000000e+00
6.8000000000e-01 1.0000000000e-02 0.0000000000e+00
6.9000000000e-01 1.0000000000e-02 0.0000000000e+00
7.0000000000e-01 1.0000000000e-02 0.0000000000e+00
7.1000000000e-01 1.0000000000e-02 0.0000000000e+00
7.2000000000e-01 1.0000000000e-02 0.0000000000e+00
7.3000000000e-01 1.0000000000e-02 0.0000000000e+00
7.4000000000e-01 1.0000000000e-02 0.0000000000e+00
7.5000000000e-01 1.0000000000e-02 0.0000000000e+00
7.6000000000e-01 1.0000000000e-02 0.0000000000e+00
7.7000000000e-01 1.0000000000e-02 0.0000000000e+00
7.8000000000e-01 1.0000000000e-02 0.0000000000e+00
7.9000000000e-01 1.0000000000e-02 0.0000000000e+00
8.0000000000e-01 1.0000000000e-02 0.0000000000e+00
8.1000000000e-01 1.0000000000e-02 0.0000000000e+00
8.2000000000e-01 1.0000000000e-02 0.0000000000e+00
8.3000000000e-01 1.0000000000e-02 0.0000000000e+00
8.4000000000e-01 1.0000000000e-02 0.0000000000e+00
8.5000000000e-01 1.0000000000e-02 0.0000000000e+00
8.6000000000e-01 1.0000000000e-02 0.0000000000e+00
8.7000000000e-01 1.0000000000e-02 0.0000000000e+00
8.8000000000e-01 1.0000000000e-02 0.0000000000e+00
8.9000000000e-01 1.0000000000e-02 0.0000000000e+00
9.0000000000e-01 1.0000000000e-02 0.0000000000e+00
9.1000000000e-01 1.0000000000e-02 0.0000000000e+00
9.2000000000e-01 1.0000000000e-02 0.0000000000e+00
[...]
CELL_DATA 10000

SCALARS massDensity float
LOOKUP_TABLE default
1.1980111055e+00
1.1980644665e+00
1.1981431918e+00
1.1982615253e+00
1.1984169327e+00
1.1986062562e+00
1.1988258098e+00
1.1990714916e+00
1.1993388866e+00
1.1996233953e+00
1.1999203460e+00
1.2002251232e+00
1.2005332704e+00
1.2008405993e+00
1.2011432658e+00
1.2014378478e+00
1.2017213849e+00
1.2019914186e+00
1.2022459956e+00
1.2024836713e+00
1.2027034824e+00
1.2029049214e+00
1.2030878875e+00
1.2032526432e+00
1.2033997545e+00
1.2035300409e+00
1.2036445146e+00
1.2037443335e+00
1.2038307474e+00
1.2039050598e+00
1.2039685853e+00
1.2040226229e+00
1.2040684260e+00
1.2041071863e+00
1.2041400154e+00
1.2041679375e+00
1.2041918786e+00
1.2042126658e+00
1.2042310220e+00
1.2042475685e+00
1.2042628225e+00
1.2042772025e+00
1.2042910284e+00
1.2043045282e+00
1.2043178407e+00
1.2043310253e+00
1.2043440671e+00
1.2043568901e+00
1.2043693650e+00
1.2043813253e+00
1.2043925772e+00
1.2044029168e+00
1.2044121401e+00
1.2044200591e+00
1.2044265096e+00
1.2044313632e+00
1.2044345319e+00
1.2044359735e+00
1.2044356916e+00
1.2044337357e+00
1.2044301957e+00
1.2044251985e+00
1.2044188988e+00
1.2044114734e+00
1.2044031114e+00
1.2043940077e+00
1.2043843551e+00
1.2043743385e+00
1.2043641299e+00
1.2043538844e+00
1.2043437385e+00
1.2043338078e+00
1.2043241880e+00
1.2043149546e+00
1.2043061649e+00
1.2042978589e+00
1.2042900625e+00
1.2042827885e+00
1.2042760393e+00
1.2042698087e+00
1.2042640840e+00
1.2042588467e+00
1.2042540758e+00
1.2042497469e+00
1.2042458358e+00
1.2042423181e+00
1.2042391721e+00
1.2042363793e+00
1.2042339282e+00
1.2042318147e+00
1.2042300468e+00
1.2042286463e+00
1.2042276537e+00
1.2042271311e+00
1.2042271683e+00
1.2042278864e+00
1.2042294434e+00
1.2042320322e+00
1.2042358583e+00
1.2042213766e+00
1.1980644665e+00
1.1981206065e+00
1.1982003679e+00
1.1983189199e+00
1.1984739469e+00
1.1986624374e+00
1.1988808182e+00
1.1991250601e+00
1.1993908156e+00
1.1996735291e+00
1.1999685780e+00
1.2002713785e+00
1.2005775139e+00
1.2008828200e+00
1.2011834856e+00
1.2014761056e+00
1.2017577457e+00
1.2020259581e+00
1.2022788081e+00
1.2025148561e+00
1.2027331502e+00
1.2029331826e+00
1.2031148579e+00
1.2032784334e+00
1.2034244756e+00
1.2035537946e+00
1.2036673989e+00
1.2037664338e+00
1.2038521413e+00
1.2039258093e+00
1.2039887406e+00
1.2040422150e+00
1.2040874700e+00
1.2041256742e+00
1.2041579187e+00
1.2041852007e+00
1.2042084219e+00
1.2042283798e+00
1.2042457708e+00
1.2042611866e+00
1.2042751205e+00
1.2042879669e+00
1.2043000296e+00
1.2043115240e+00
1.2043225882e+00
1.2043332870e+00
1.2043436255e+00
1.2043535554e+00
1.2043629900e+00
1.2043718128e+00
1.2043798926e+00
1.2043870920e+00
1.2043932811e+00
1.2043983443e+00
1.2044021911e+00
1.2044047589e+00
1.2044060191e+00
1.2044059765e+00
1.2044046703e+00
1.2044021696e+00
1.2043985711e+00
1.2043939921e+00
1.2043885663e+00
1.2043824360e+00
1.2043757476e+00
1.2043686452e+00
1.2043612669e+00
1.2043537404e+00
1.2043461808e+00
1.2043386884e+00
1.2043313488e+00
1.2043242318e+00
1.2043173928e+00
1.2043108736e+00
1.2043047035e+00
1.2042989015e+00
1.2042934770e+00
1.2042884323e+00
1.2042837632e+00
1.2042794613e+00
1.2042755139e+00
1.2042719066e+00
1.2042686226e+00
1.2042656451e+00
1.2042629569e+00
1.2042605421e+00
1.2042583863e+00
1.2042564784e+00
1.2042548106e+00
1.2042533814e+00
1.2042521948e+00
1.2042512636e+00
1.2042506088e+00
1.2042502625e+00
1.2042502654e+00
1.2042506676e+00
1.2042515198e+00
1.2042528603e+00
1.2042546752e+00
1.2042363510e+00
1.1981431918e+00
1.1982003679e+00
1.1982796924e+00
1.1983970878e+00
1.1985503299e+00
1.1987365047e+00
1.1989521131e+00
1.1991932097e+00
1.1994555097e+00
1.1997345346e+00
1.2000257188e+00
1.2003245508e+00
1.2006266646e+00
1.2009279603e+00
1.2012246688e+00
1.2015134387e+00
1.2017913660e+00
1.2020560435e+00
1.2023055549e+00
1.2025384872e+00
1.2027538953e+00
1.2029512853e+00
1.2031305586e+00
1.2032919763e+00
1.2034360941e+00
1.2035637188e+00
1.2036758437e+00
1.2037736065e+00
1.2038582323e+00
1.2039309993e+00
1.2039931938e+00
1.2040460859e+00
1.2040908972e+00
1.2041287873e+00
1.2041608324e+00
1.2041880202e+00
1.2042112375e+00
1.2042312712e+00
1.2042488013e+00
1.2042644067e+00
1.2042785619e+00
1.2042916457e+00
1.2043039412e+00
1.2043156469e+00
1.2043268798e+00
1.2043376890e+00
1.2043480614e+00
1.2043579375e+00
1.2043672195e+00
1.2043757875e+00
1.2043835085e+00
1.2043902518e+00
1.2043958960e+00
1.2044003415e+00
1.2044035147e+00
1.2044053753e+00
1.2044059161e+00
1.2044051657e+00
1.2044031842e+00
1.2044000612e+00
1.2043959090e+00
1.2043908586e+00
1.2043850513e+00
1.2043786345e+00
1.2043717543e+00
1.2043645517e+00
1.2043571580e+00
1.2043496921e+00
1.2043422583e+00
1.2043349457e+00
1.2043278280e+00
1.2043209636e+00
1.2043143974e+00
1.2043081614e+00
1.2043022771e+00
1.2042967562e+00
1.2042916033e+00
1.2042868163e+00
1.2042823885e+00
1.2042783094e+00
1.2042745661e+00
1.2042711435e+00
1.2042680262e+00
1.2042651979e+00
1.2042626435e+00
1.2042603481e+00
1.2042582995e+00
1.2042564872e+00
1.2042549049e+00
1.2042535494e+00
1.2042524234e+00
1.2042515337e+00
1.2042508937e+00
1.2042505203e+00
1.2042504341e+00
1.2042506524e+00
1.2042511819e+00
1.2042519988e+00
1.2042530159e+00
1.2042327148e+00
1.1982615253e+00
1.1983189199e+00
1.1983970878e+00
1.1985124799e+00
1.1986629336e+00
1.1988456030e+00
1.1990570847e+00
1.1992935152e+00
1.1995507142e+00
1.1998242874e+00
1.2001097745e+00
1.2004027445e+00
1.2006989301e+00
1.2009943024e+00
1.2012851778e+00
1.2015682610e+00
1.2018407158e+00
1.2021001735e+00
1.2023447651e+00
1.2025730977e+00
1.2027842539e+00
1.2029777433e+00
1.2031534775e+00
1.2033117081e+00
1.2034529877e+00
1.2035781042e+00
1.2036880394e+00
1.2037839069e+00
1.2038669158e+00
1.2039383190e+00
1.2039993853e+00
1.2040513604e+00
1.2040954493e+00
1.2041327891e+00
1.2041644405e+00
1.2041913705e+00
1.2042144510e+00
1.2042344488e+00
1.2042520284e+00
1.2042677480e+00
1.2042820654e+00
1.2042953371e+00
1.2043078284e+00
1.2043197151e+00
1.2043310965e+00
1.2043420009e+00
1.2043524006e+00
1.2043622205e+00
1.2043713546e+00
1.2043796758e+00
1.2043870520e+00
1.2043933551e+00
1.2043984746e+00
1.2044023232e+00
1.2044048460e+00
1.2044060217e+00
1.2044058659e+00
1.2044044281e+00
1.2044017905e+00
1.2043980610e+00
1.2043933687e+00
1.2043878563e+00
1.2043816744e+00
1.2043749740e+00
1.2043679021e+00
1.2043605962e+00
1.2043531816e+00
1.2043457683e+00
1.2043384508e+00
1.2043313070e+00
1.2043243991e+00
1.2043177748e+00
1.2043114683e+00
1.2043055028e+00
1.2042998914e+00
1.2042946398e+00
1.2042897469e+00
1.2042852069e+00
1.2042810103e+00
1.2042771451e+00
1.2042735972e+00
1.2042703519e+00
1.2042673938e+00
1.2042647081e+00
1.2042622798e+00
1.2042600962e+00
1.2042581453e+00
1.2042564179e+00
1.2042549069e+00
1.2042536087e+00
1.2042525223e+00
1.2042516508e+00
1.2042509987e+00
1.2042505728e+00
1.2042503774e+00
1.2042504109e+00
1.2042506559e+00
1.2042510675e+00
1.2042515504e+00
1.2042299107e+00
1.1984169327e+00
1.1984739469e+00
1.1985503299e+00
1.1986629336e+00
1.1988096346e+00
1.1989876733e+00
1.1991937320e+00
1.1994240664e+00
1.1996745996e+00
1.1999410694e+00
1.2002191226e+00
1.2005044592e+00
1.2007929124e+00
1.2010805726e+00
1.2013638407e+00
1.2016395207e+00
1.2019048397e+00
1.2021575026e+00
1.2023956799e+00
1.2026180259e+00
1.2028236393e+00
1.2030120524e+00
1.2031831729e+00
1.2033372548e+00
1.2034748321e+00
1.2035966806e+00
1.2037037536e+00
1.2037971445e+00
1.2038780294e+00
1.2039476372e+00
1.2040072036e+00
1.2040579501e+00
1.2041010509e+00
1.2041376207e+00
1.2041686923e+00
1.2041952126e+00
1.2042180281e+00
1.2042378864e+00
1.2042554285e+00
1.2042711932e+00
1.2042856146e+00
1.2042990298e+00
1.2043116801e+00
1.2043237220e+00
1.2043352318e+00
1.2043462205e+00
1.2043566412e+00
1.2043664066e+00
1.2043753981e+00
1.2043834841e+00
1.2043905297e+00
1.2043964118e+00
1.2044010269e+00
1.2044043018e+00
1.2044061969e+00
1.2044067112e+00
1.2044058803e+00
1.2044037759e+00
1.2044004997e+00
1.2043961788e+00
1.2043909577e+00
1.2043849918e+00
1.2043784397e+00
1.2043714572e+00
1.2043641916e+00
1.2043567779e+00
1.2043493351e+00
1.2043419656e+00
1.2043347538e+00
1.2043277670e+00
1.2043210566e+00
1.2043146593e+00
1.2043085998e+00
1.2043028920e+00
1.2042975415e+00
1.2042925474e+00
1.2042879036e+00
1.2042836004e+00
1.2042796258e+00
1.2042759656e+00
1.2042726054e+00
1.2042695299e+00
1.2042667243e+00
1.2042641738e+00
1.2042618653e+00
1.2042597857e+00
1.2042579246e+00
1.2042562722e+00
1.2042548218e+00
1.2042535676e+00
1.2042525069e+00
1.2042516378e+00
1.2042509599e+00
1.2042504710e+00
1.2042501664e+00
1.2042500330e+00
1.2042500448e+00
1.2042501532e+00
1.2042502786e+00
1.2042276865e+00
1.1986062562e+00
1.1986624374e+00
1.1987365047e+00
1.1988456030e+00
1.1989876733e+00
1.1991600316e+00
1.1993594805e+00
1.1995823876e+00
1.1998248253e+00
1.2000826586e+00
1.2003516930e+00
1.2006277554e+00
1.2009068308e+00
1.2011851235e+00
1.2014591670e+00
1.2017258563e+00
1.2019825229e+00
1.2022269352e+00
1.2024573359e+00
1.2026724136e+00
1.2028713077e+00
1.2030535578e+00
1.2032190853e+00
1.2033681299e+00
1.2035012176e+00
1.2036190953e+00
1.2037226942e+00
1.2038130701e+00
1.2038913698e+00
1.2039587818e+00
1.2040165105e+00
1.2040657384e+00
1.2041076100e+00
1.2041432042e+00
1.2041735274e+00
1.2041994948e+00
1.2042219292e+00
1.2042415498e+00
1.2042589756e+00
1.2042747190e+00
1.2042891927e+00
1.2043027082e+00
1.2043154860e+00
1.2043276577e+00
1.2043392804e+00
1.2043503428e+00
1.2043607825e+00
1.2043704951e+00
1.2043793531e+00
1.2043872162e+00
1.2043939489e+00
1.2043994293e+00
1.2044035629e+00
1.2044062871e+00
1.2044075791e+00
1.2044074550e+00
1.2044059714e+00
1.2044032197e+00
1.2043993221e+00
1.2043944233e+00
1.2043886838e+00
1.2043822707e+00
1.2043753515e+00
1.2043680865e+00
1.2043606239e+00
1.2043530960e+00
1.2043456168e+00
1.2043382808e+00
1.2043311631e+00
1.2043243210e+00
1.2043177951e+00
1.2043116120e+00
1.2043057865e+00
1.2043003240e+00
1.2042952225e+00
1.2042904747e+00
1.2042860695e+00
1.2042819935e+00
1.2042782317e+00
1.2042747687e+00
1.2042715885e+00
1.2042686760e+00
1.2042660161e+00
1.2042635949e+00
1.2042613993e+00
1.2042594175e+00
1.2042576386e+00
1.2042560539e+00
1.2042546551e+00
1.2042534362e+00
1.2042523916e+00
1.2042515170e+00
1.2042508069e+00
1.2042502551e+00
1.2042498503e+00
1.2042495755e+00
1.2042494018e+00
1.2042492865e+00
1.2042491669e+00
1.2042258557e+00
1.1988258098e+00
1.1988808182e+00
1.1989521131e+00
1.1990570847e+00
1.1991937320e+00
1.1993594805e+00
1.1995512426e+00
1.1997655413e+00
1.1999985879e+00
1.2002464252e+00
1.2005050073e+00
1.2007703411e+00
1.2010385526e+00
1.2013060110e+00
1.2015693702e+00
1.2018256621e+00
1.2020723091e+00
1.2023071808e+00
1.2025285771e+00
1.2027352508e+00
1.2029263654e+00
1.2031014902e+00
1.2032605422e+00
1.2034037625e+00
1.2035316512e+00
1.2036449360e+00
1.2037445088e+00
1.2038313935e+00
1.2039066912e+00
1.2039715536e+00
1.2040271386e+00
1.2040745918e+00
1.2041150144e+00
1.2041494519e+00
1.2041788719e+00
1.2042041602e+00
1.2042261058e+00
1.2042454021e+00
1.2042626378e+00
1.2042783017e+00
1.2042927785e+00
1.2043063573e+00
1.2043192320e+00
1.2043315133e+00
1.2043432338e+00
1.2043543640e+00
1.2043648208e+00
1.2043744867e+00
1.2043832206e+00
1.2043908765e+00
1.2043973143e+00
1.2044024155e+00
1.2044060907e+00
1.2044082896e+00
1.2044090026e+00
1.2044082644e+00
1.2044061497e+00
1.2044027704e+00
1.2043982675e+00
1.2043928037e+00
1.2043865545e+00
1.2043796996e+00
1.2043724146e+00
1.2043648650e+00
1.2043572003e+00
1.2043495508e+00
1.2043420254e+00
1.2043347115e+00
1.2043276756e+00
1.2043209650e+00
1.2043146103e+00
1.2043086281e+00
1.2043030238e+00
1.2042977942e+00
1.2042929299e+00
1.2042884174e+00
1.2042842409e+00
1.2042803828e+00
1.2042768256e+00
1.2042735518e+00
1.2042705449e+00
1.2042677887e+00
1.2042652686e+00
1.2042629707e+00
1.2042608826e+00
1.2042589925e+00
1.2042572904e+00
1.2042557668e+00
1.2042544139e+00
1.2042532239e+00
1.2042521905e+00
1.2042513064e+00
1.2042505644e+00
1.2042499542e+00
1.2042494631e+00
1.2042490716e+00
1.2042487536e+00
1.2042484722e+00
1.2042481810e+00
1.2042242948e+00
1.1990714916e+00
1.1991250601e+00
1.1991932097e+00
1.1992935152e+00
1.1994240664e+00
1.1995823876e+00
1.1997655413e+00
1.1999701917e+00
1.2001927371e+00
1.2004293833e+00
1.2006762851e+00
1.2009296134e+00
1.2011856881e+00
1.2014410262e+00
1.2016924509e+00
1.2019371134e+00
1.2021725693e+00
1.2023967715e+00
1.2026081117e+00
1.2028053880e+00
1.2029878151e+00
1.2031549730e+00
1.2033067940e+00
1.2034435016e+00
1.2035655842e+00
1.2036737319e+00
1.2037688063e+00
1.2038517826e+00
1.2039237222e+00
1.2039857241e+00
1.2040389039e+00
1.2040843565e+00
1.2041231425e+00
1.2041562619e+00
1.2041846465e+00
1.2042091422e+00
1.2042305071e+00
1.2042494000e+00
1.2042663826e+00
1.2042819129e+00
1.2042963513e+00
1.2043099584e+00
1.2043229055e+00
1.2043352770e+00
1.2043470852e+00
1.2043582773e+00
1.2043687538e+00
1.2043783794e+00
1.2043870025e+00
1.2043944673e+00
1.2044006315e+00
1.2044053762e+00
1.2044086189e+00
1.2044103178e+00
1.2044104779e+00
1.2044091494e+00
1.2044064261e+00
1.2044024382e+00
1.2043973459e+00
1.2043913288e+00
1.2043845779e+00
1.2043772848e+00
1.2043696342e+00
1.2043617965e+00
1.2043539232e+00
1.2043461429e+00
1.2043385604e+00
1.2043312563e+00
1.2043242888e+00
1.2043176960e+00
1.2043114986e+00
1.2043057037e+00
1.2043003074e+00
1.2042952984e+00
1.2042906598e+00
1.2042863722e+00
1.2042824144e+00
1.2042787655e+00
1.2042754048e+00
1.2042723133e+00
1.2042694728e+00
1.2042668672e+00
1.2042644812e+00
1.2042623016e+00
1.2042603158e+00
1.2042585129e+00
1.2042568826e+00
1.2042554160e+00
1.2042541044e+00
1.2042529402e+00
1.2042519151e+00
1.2042510216e+00
1.2042502500e+00
1.2042495897e+00
1.2042490261e+00
1.2042485413e+00
1.2042481112e+00
1.2042477067e+00
1.2042472917e+00
1.2042229262e+00
1.1993388866e+00
1.1993908156e+00
1.1994555097e+00
1.1995507142e+00
1.1996745996e+00
1.1998248253e+00
1.1999985879e+00
1.2001927371e+00
1.2004038396e+00
1.2006283138e+00
1.2008624949e+00
1.2011027700e+00
1.2013456309e+00
1.2015877932e+00
1.2018262272e+00
1.2020582491e+00
1.2022815255e+00
1.2024941314e+00
1.2026945287e+00
1.2028815923e+00
1.2030545669e+00
1.2032130671e+00
1.2033570206e+00
1.2034866511e+00
1.2036024159e+00
1.2037049802e+00
1.2037951578e+00
1.2038738840e+00
1.2039421643e+00
1.2040010512e+00
1.2040516036e+00
1.2040948704e+00
1.2041318595e+00
1.2041635285e+00
1.2041907631e+00
1.2042143728e+00
1.2042350759e+00
1.2042535002e+00
1.2042701730e+00
1.2042855253e+00
1.2042998869e+00
1.2043134943e+00
1.2043264906e+00
1.2043389384e+00
1.2043508246e+00
1.2043620775e+00
1.2043725765e+00
1.2043821721e+00
1.2043906980e+00
1.2043979913e+00
1.2044039037e+00
1.2044083176e+00
1.2044111538e+00
1.2044123803e+00
1.2044120138e+00
1.2044101204e+00
1.2044068105e+00
1.2044022334e+00
1.2043965667e+00
1.2043900078e+00
1.2043827619e+00
1.2043750334e+00
1.2043670158e+00
1.2043588853e+00
1.2043507956e+00
1.2043428743e+00
1.2043352223e+00
1.2043279145e+00
1.2043210011e+00
1.2043145114e+00
1.2043084570e+00
1.2043028354e+00
1.2042976340e+00
1.2042928330e+00
1.2042884087e+00
1.2042843354e+00
1.2042805871e+00
1.2042771387e+00
1.2042739671e+00
1.2042710509e+00
1.2042683710e+00
1.2042659102e+00
1.2042636537e+00
1.2042615876e+00
1.2042597002e+00
1.2042579803e+00
1.2042564185e+00
1.2042550054e+00
1.2042537328e+00
1.2042525922e+00
1.2042515756e+00
1.2042506739e+00
1.2042498779e+00
1.2042491755e+00
1.2042485535e+00
1.2042479946e+00
1.2042474789e+00
1.2042469819e+00
1.2042464771e+00
1.2042216989e+00
1.1996233953e+00
1.1996735291e+00
1.1997345346e+00
1.1998242874e+00
1.1999410694e+00
1.2000826586e+00
1.2002464252e+00
1.2004293833e+00
1.2006283138e+00
1.2008398238e+00
1.2010604785e+00
1.2012868555e+00
1.2015156686e+00
1.2017438056e+00
1.2019684308e+00
1.2021869993e+00
1.2023973304e+00
1.2025975962e+00
1.2027863638e+00
1.2029625609e+00
1.2031254904e+00
1.2032747795e+00
1.2034103729e+00
1.2035324739e+00
1.2036415250e+00
1.2037381482e+00
1.2038231211e+00
1.2038973225e+00
1.2039617105e+00
1.2040172770e+00
1.2040650304e+00
1.2041059607e+00
1.2041410282e+00
1.2041711379e+00
1.2041971332e+00
1.2042197783e+00
1.2042397559e+00
1.2042576551e+00
1.2042739733e+00
1.2042891080e+00
1.2043033629e+00
1.2043169448e+00
1.2043299735e+00
1.2043424845e+00
1.2043544441e+00
1.2043657569e+00
1.2043762853e+00
1.2043858613e+00
1.2043943074e+00
1.2044014491e+00
1.2044071346e+00
1.2044112438e+00
1.2044137021e+00
1.2044144842e+00
1.2044136189e+00
1.2044111859e+00
1.2044073127e+00
1.2044021654e+00
1.2043959398e+00
1.2043888495e+00
1.2043811150e+00
1.2043729527e+00
1.2043645658e+00
1.2043561364e+00
1.2043478211e+00
1.2043397472e+00
1.2043320125e+00
1.2043246862e+00
1.2043178117e+00
1.2043114099e+00
1.2043054834e+00
1.2043000207e+00
1.2042950005e+00
1.2042903951e+00
1.2042861736e+00
1.2042823044e+00
1.2042787562e+00
1.2042755003e+00
1.2042725104e+00
1.2042697632e+00
1.2042672381e+00
1.2042649175e+00
1.2042627857e+00
1.2042608294e+00
1.2042590366e+00
1.2042573970e+00
1.2042559007e+00
1.2042545392e+00
1.2042533039e+00
1.2042521868e+00
1.2042511792e+00
1.2042502726e+00
1.2042494570e+00
1.2042487215e+00
1.2042480530e+00
1.2042474368e+00
1.2042468554e+00
1.2042462899e+00
1.2042457189e+00
1.2042205779e+00
1.1999203460e+00
1.1999685780e+00
1.2000257188e+00
1.2001097745e+00
1.2002191226e+00
1.2003516930e+00
1.2005050073e+00
1.2006762851e+00
1.2008624949e+00
1.2010604785e+00
1.2012670022e+00
1.2014788816e+00
1.2016930225e+00
1.2019065312e+00
1.2021167365e+00
1.2023212749e+00
1.2025180899e+00
1.2027054880e+00
1.2028821145e+00
1.2030469816e+00
1.2031994255e+00
1.2033391112e+00
1.2034659783e+00
1.2035802295e+00
1.2036822728e+00
1.2037727016e+00
1.2038522404e+00
1.2039217227e+00
1.2039820443e+00
1.2040341447e+00
1.2040789693e+00
1.2041174560e+00
1.2041505064e+00
1.2041789783e+00
1.2042036640e+00
1.2042252872e+00
1.2042444873e+00
1.2042618198e+00
1.2042777452e+00
1.2042926328e+00
1.2043067544e+00
1.2043202922e+00
1.2043333377e+00
1.2043459043e+00
1.2043579329e+00
1.2043693093e+00
1.2043798742e+00
1.2043894450e+00
1.2043978285e+00
1.2044048420e+00
1.2044103257e+00
1.2044141591e+00
1.2044162686e+00
1.2044166365e+00
1.2044153007e+00
1.2044123550e+00
1.2044079415e+00
1.2044022438e+00
1.2043954742e+00
1.2043878630e+00
1.2043796454e+00
1.2043710504e+00
1.2043622908e+00
1.2043535555e+00
1.2043450043e+00
1.2043367650e+00
1.2043289329e+00
1.2043215727e+00
1.2043147209e+00
1.2043083908e+00
1.2043025764e+00
1.2042972577e+00
1.2042924048e+00
1.2042879823e+00
1.2042839522e+00
1.2042802765e+00
1.2042769195e+00
1.2042738481e+00
1.2042710331e+00
1.2042684487e+00
1.2042660734e+00
1.2042638881e+00
1.2042618773e+00
1.2042600272e+00
1.2042583264e+00
1.2042567643e+00
1.2042553319e+00
1.2042540205e+00
1.2042528223e+00
1.2042517288e+00
1.2042507323e+00
1.2042498238e+00
1.2042489943e+00
1.2042482332e+00
1.2042475291e+00
1.2042468687e+00
1.2042462380e+00
1.2042456212e+00
1.2042450025e+00
1.2042195348e+00
1.2002251232e+00
1.2002713785e+00
1.2003245508e+00
1.2004027445e+00
1.2005044592e+00
1.2006277554e+00
1.2007703411e+00
1.2009296134e+00
1.2011027700e+00
1.2012868555e+00
1.2014788816e+00
1.2016758687e+00
1.2018749591e+00
1.2020734442e+00
1.2022688594e+00
1.2024589909e+00
1.2026419444e+00
1.2028161309e+00
1.2029803074e+00
1.2031335430e+00
1.2032752354e+00
1.2034050632e+00
1.2035229833e+00
1.2036291769e+00
1.2037240351e+00
1.2038081050e+00
1.2038820715e+00
1.2039467077e+00
1.2040028577e+00
1.2040513959e+00
1.2040932127e+00
1.2041291831e+00
1.2041601573e+00
1.2041869363e+00
1.2042102676e+00
1.2042308264e+00
1.2042492146e+00
1.2042659472e+00
1.2042814537e+00
1.2042960693e+00
1.2043100395e+00
1.2043235167e+00
1.2043365694e+00
1.2043491846e+00
1.2043612828e+00
1.2043727261e+00
1.2043833385e+00
1.2043929183e+00
1.2044012601e+00
1.2044081687e+00
1.2044134789e+00
1.2044170657e+00
1.2044188581e+00
1.2044188423e+00
1.2044170663e+00
1.2044136350e+00
1.2044087058e+00
1.2044024774e+00
1.2043951793e+00
1.2043870574e+00
1.2043783620e+00
1.2043693345e+00
1.2043601981e+00
1.2043511488e+00
1.2043423505e+00
1.2043339319e+00
1.2043259869e+00
1.2043185759e+00
1.2043117297e+00
1.2043054543e+00
1.2042997357e+00
1.2042945454e+00