# vtk DataFile Version 2.0
Blank
ASCII
DATASET STRUCTURED_GRID
DIMENSIONS 101 101 2
POINTS 20402 float
0.0000000000e+00 0.0000000000e+00 0.0000000000e+00
1.0000000000e-02 0.0000000000e+00 0.0000000000e+00
2.0000000000e-02 0.0000000000e+00 0.0000000000e+00
3.0000000000e-02 0.0000000000e+00 0.0000000000e+00
4.0000000000e-02 0.0000000000e+00 0.0000000000e+00
5.0000000000e-02 0.0000000000e+00 0.0000000000e+00
6.0000000000e-02 0.0000000000e+00 0.0000000000e+00
7.0000000000e-02 0.0000000000e+00 0.0000000000e+00
8.0000000000e-02 0.0000000000e+00 0.0000000000e+00
9.0000000000e-02 0.0000000000e+00 0.0000000000e+00
1.0000000000e-01 0.0000000000e+00 0.0000000000e+00
1.1000000000e-01 0.0000000000e+00 0.0000000000e+00
1.2000000000e-01 0.0000000000e+00 0.0000000000e+00
1.3000000000e-01 0.0000000000e+00 0.0000000000e+00
1.4000000000e-01 0.0000000000e+00 0.0000000000e+00
1.5000000000e-01 0.0000000000e+00 0.0000000000e+00
1.6000000000e-01 0.0000000000e+00 0.0000000000e+00
1.7000000000e-01 0.0000000000e+00 0.0000000000e+00
1.8000000000e-01 0.0000000000e+00 0.0000000000e+00
1.9000000000e-01 0.0000000000e+00 0.0000000000e+00
2.0000000000e-01 0.0000000000e+00 0.0000000000e+00
2.1000000000e-01 0.0000000000e+00 0.0000000000e+00
2.2000000000e-01 0.0000000000e+00 0.0000000000e+00
2.3000000000e-01 0.0000000000e+00 0.0000000000e+00
2.4000000000e-01 0.0000000000e+00 0.0000000000e+00
2.5000000000e-01 0.0000000000e+00 0.0000000000e+00
2.6000000000e-01 0.0000000000e+00 0.0000000000e+00
2.7000000000e-01 0.0000000000e+00 0.0000000000e+00
2.8000000000e-01 0.0000000000e+00 0.0000000000e+00
2.9000000000e-01 0.0000000000e+00 0.0000000000e+00
3.0000000000e-01 0.0000000000e+00 0.0000000000e+00
3.1000000000e-01 0.0000000000e+00 0.0000000000e+00
3.2000000000e-01 0.0000000000e+00 0.0000000000e+00
3.3000000000e-01 0.0000000000e+00 0.0000000000e+00
3.4000000000e-01 0.0000000000e+00 0.0000000000e+00
3.5000000000e-01 0.0000000000e+00 0.0000000000e+00
3.6000000000e-01 0.0000000000e+00 0.0000000000e+00
3.7000000000e-01 0.0000000000e+00 0.0000000000e+00
3.8000000000e-01 0.0000000000e+00 0.0000000000e+00
3.9000000000e-01 0.0000000000e+00 0.0000000000e+00
4.0000000000e-01 0.0000000000e+00 0.0000000000e+00
4.1000000000e-01 0.0000000000e+00 0.0000000000e+00
4.2000000000e-01 0.0000000000e+00 0.0000000000e+00
4.3000000000e-01 0.0000000000e+00 0.0000000000e+00
4.4000000000e-01 0.0000000000e+00 0.0000000000e+00
4.5000000000e-01 0.0000000000e+00 0.0000000000e+00
4.6000000000e-01 0.0000000000e+00 0.0000000000e+00
4.7000000000e-01 0.0000000000e+00 0.0000000000e+00
4.8000000000e-01 0.0000000000e+00 0.0000000000e+00
4.9000000000e-01 0.0000000000e+00 0.0000000000e+00
5.0000000000e-01 0.0000000000e+00 0.0000000000e+00
5.1000000000e-01 0.0000000000e+00 0.0000000000e+00
5.2000000000e-01 0.0000000000e+00 0.0000000000e+00
5.3000000000e-01 0.0000000000e+00 0.0000000000e+00
5.4000000000e-01 0.0000000000e+00 0.0000000000e+00
5.5000000000e-01 0.0000000000e+00 0.0000000000e+00
5.6000000000e-01 0.0000000000e+00 0.0000000000e+00
5.7000000000e-01 0.0000000000e+00 0.0000000000e+00
5.8000000000e-01 0.0000000000e+00 0.0000000000e+00
5.9000000000e-01 0.0000000000e+00 0.0000000000e+00
6.0000000000e-01 0.0000000000e+00 0.0000000000e+00
6.1000000000e-01 0.0000000000e+00 0.0000000000e+00
6.2000000000e-01 0.0000000000e+00 0.0000000000e+00
6.3000000000e-01 0.0000000000e+00 0.0000000000e+00
6.4000000000e-01 0.0000000000e+00 0.0000000000e+00
6.5000000000e-01 0.0000000000e+00 0.0000000000e+00
6.6000000000e-01 0.0000000000e+00 0.0000000000e+00
6.7000000000e-01 0.0000000000e+00 0.0000000000e+00
6.8000000000e-01 0.0000000000e+00 0.0000000000e+00
6.9000000000e-01 0.0000000000e+00 0.0000000000e+00
7.0000000000e-01 0.0000000000e+00 0.0000000000e+00
7.1000000000e-01 0.0000000000e+00 0.0000000000e+00
7.2000000000e-01 0.0000000000e+00 0.0000000000e+00
7.3000000000e-01 0.0000000000e+00 0.0000000000e+00
7.4000000000e-01 0.0000000000e+00 0.0000000000e+00
7.5000000000e-01 0.0000000000e+00 0.0000000000e+00
7.6000000000e-01 0.0000000000e+00 0.0000000000e+00
7.7000000000e-01 0.0000000000e+00 0.0000000000e+00
7.8000000000e-01 0.0000000000e+00 0.0000000000e+00
7.9000000000e-01 0.0000000000e+00 0.0000000000e+00
8.0000000000e-01 0.0000000000e+00 0.0000000000e+00
8.1000000000e-01 0.0000000000e+00 0.0000000000e+00
8.2000000000e-01 0.0000000000e+00 0.0000000000e+00
8.3000000000e-01 0.0000000000e+00 0.0000000000e+00
8.4000000000e-01 0.0000000000e+00 0.0000000000e+00
8.5000000000e-01 0.0000000000e+00 0.0000000000e+00
8.6000000000e-01 0.0000000000e+00 0.0000000000e+00
8.7000000000e-01 0.0000000000e+00 0.0000000000e+00
8.8000000000e-01 0.0000000000e+00 0.0000000000e+00
8.9000000000e-01 0.0000000000e+00 0.0000000000e+00
9.0000000000e-01 0.0000000000e+00 0.0000000000e+00
9.1000000000e-01 0.0000000000e+00 0.0000000000e+00
9.2000000000e-01 0.0000000000e+00 0.0000000000e+00
9.3000000000e-01 0.0000000000e+00 0.0000000000e+00
9.4000000000e-01 0.0000000000e+00 0.0000000000e+00
9.5000000000e-01 0.0000000000e+00 0.0000000000e+00
9.6000000000e-01 0.0000000000e+00 0.0000000000e+00
9.7000000000e-01 0.0000000000e+00 0.0000000000e+00
9.8000000000e-01 0.0000000000e+00 0.0000000000e+00
9.9000000000e-01 0.0000000000e+00 0.0000000000e+00
1.0000000000e+00 0.0000000000e+00 0.0000000000e+00
0.0000000000e+00 1.0000000000e-02 0.0000000000e+00
1.0000000000e-02 1.0000000000e-02 0.0000000000e+00
2.0000000000e-02 1.0000000000e-02 0.0000000000e+00
3.0000000000e-02 1.0000000000e-02 0.0000000000e+00
4.0000000000e-02 1.0000000000e-02 0.0000000000e+00
5.0000000000e-02 1.0000000000e-02 0.0000000000e+00
6.0000000000e-02 1.0000000000e-02 0.0000000000e+00
7.0000000000e-02 1.0000000000e-02 0.0000000000e+00
8.0000000000e-02 1.0000000000e-02 0.0000000000e+00
9.0000000000e-02 1.0000000000e-02 0.0000000000e+00
1.0000000000e-01 1.0000000000e-02 0.0000000000e+00
1.1000000000e-01 1.0000000000e-02 0.0000000000e+00
1.2000000000e-01 1.0000000000e-02 0.0000000000e+00
1.3000000000e-01 1.0000000000e-02 0.0000000000e+00
1.4000000000e-01 1.0000000000e-02 0.0000000000e+00
1.5000000000e-01 1.0000000000e-02 0.0000000000e+00
1.6000000000e-01 1.0000000000e-02 0.0000000000e+00
1.7000000000e-01 1.0000000000e-02 0.0000000000e+00
1.8000000000e-01 1.0000000000e-02 0.0000000000e+00
1.9000000000e-01 1.0000000000e-02 0.0000000000e+00
2.0000000000e-01 1.0000000000e-02 0.0000000000e+00
2.1000000000e-01 1.0000000000e-02 0.0000000000e+00
2.2000000000e-01 1.0000000000e-02 0.0000000000e+00
2.3000000000e-01 1.0000000000e-02 0.0000000000e+00
2.4000000000e-01 1.0000000000e-02 0.0000000000e+00
2.5000000000e-01 1.0000000000e-02 0.0000000000e+00
2.6000000000e-01 1.0000000000e-02 0.0000000000e+00
2.7000000000e-01 1.0000000000e-02 0.0000000000e+00
2.8000000000e-01 1.0000000000e-02 0.0000000000e+00
2.9000000000e-01 1.0000000000e-02 0.0000000000e+00
3.0000000000e-01 1.0000000000e-02 0.0000000000e+00
3.1000000000e-01 1.0000000000e-02 0.0000000000e+00
3.2000000000e-01 1.0000000000e-02 0.0000000000e+00
3.3000000000e-01 1.0000000000e-02 0.0000000000e+00
3.4000000000e-01 1.0000000000e-02 0.0000000000e+00
3.5000000000e-01 1.0000000000e-02 0.0000000000e+00
3.6000000000e-01 1.0000000000e-02 0.0000000000e+00
3.7000000000e-01 1.0000000000e-02 0.0000000000e+00
3.8000000000e-01 1.0000000000e-02 0.0000000000e+00
3.9000000000e-01 1.0000000000e-02 0.0000000000e+00
4.0000000000e-01 1.0000000000e-02 0.0000000000e+00
4.1000000000e-01 1.0000000000e-02 0.0000000000e+00
4.2000000000e-01 1.0000000000e-02 0.0000000000e+00
4.3000000000e-01 1.0000000000e-02 0.0000000000e+00
4.4000000000e-01 1.0000000000e-02 0.0000000000e+00
4.5000000000e-01 1.0000000000e-02 0.0000000000e+00
4.6000000000e-01 1.0000000000e-02 0.0000000000e+00
4.7000000000e-01 1.0000000000e-02 0.0000000000e+00
4.8000000000e-01 1.0000000000e-02 0.0000000000e+00
4.9000000000e-01 1.0000000000e-02 0.0000000000e+00
5.0000000000e-01 1.0000000000e-02 0.0000000000e+00
5.1000000000e-01 1.0000000000e-02 0.0000000000e+00
5.2000000000e-01 1.0000000000e-02 0.0000000000e+00
5.3000000000e-01 1.0000000000e-02 0.0000000000e+00
5.4000000000e-01 1.0000000000e-02 0.0000000000e+00
5.5000000000e-01 1.0000000000e-02 0.0000000000e+00
5.6000000000e-01 1.0000000000e-02 0.0000000000e+00
5.7000000000e-01 1.0000000000e-02 0.0000000000e+00
5.8000000000e-01 1.0000000000e-02 0.0000000000e+00
5.9000000000e-01 1.0000000000e-02 0.0000000000e+00
6.0000000000e-01 1.0000000000e-02 0.0000000000e+00
6.1000000000e-01 1.0000000000e-02 0.0000000000e+00
6.2000000000e-01 1.0000000000e-02 0.0000000000e+00
6.3000000000e-01 1.0000000000e-02 0.0000000000e+00
6.4000000000e-01 1.0000000000e-02 0.0000000000e+00
6.5000000000e-01 1.0000000000e-02 0.0000000000e+00
6.6000000000e-01 1.0000000000e-02 0.0000000000e+00
6.7000000000e-01 1.0000000000e-02 0.0000000000e+00
6.8000000000e-01 1.0000000000e-02 0.0000000000e+00
6.9000000000e-01 1.0000000000e-02 0.0000000000e+00
7.0000000000e-01 1.0000000000e-02 0.0000000000e+00
7.1000000000e-01 1.0000000000e-02 0.0000000000e+00
7.2000000000e-01 1.0000000000e-02 0.0000000000e+00
7.3000000000e-01 1.0000000000e-02 0.0000000000e+00
7.4000000000e-01 1.0000000000e-02 0.0000000000e+00
7.5000000000e-01 1.0000000000e-02 0.0000000000e+00
7.6000000000e-01 1.0000000000e-02 0.0000000000e+00
7.7000000000e-01 1.0000000000e-02 0.0000000000e+00
7.8000000000e-01 1.0000000000e-02 0.0000000000e+00
7.9000000000e-01 1.0000000000e-02 0.0000000000e+00
8.0000000000e-01 1.0000000000e-02 0.0000000000e+00
8.1000000000e-01 1.0000000000e-02 0.0000000000e+00
8.2000000000e-01 1.0000000000e-02 0.0000000000e+00
8.3000000000e-01 1.0000000000e-02 0.0000000000e+00
8.4000000000e-01 1.0000000000e-02 0.0000000000e+00
8.5000000000e-01 1.0000000000e-02 0.0000000000e+00
8.6000000000e-01 1.0000000000e-02 0.0000000000e+00
8.7000000000e-01 1.0000000000e-02 0.0000000000e+00
8.8000000000e-01 1.0000000000e-02 0.0000000000e+00
8.9000000000e-01 1.0000000000e-02 0.0000000000e+00
9.0000000000e-01 1.0000000000e-02 0.0000000000e+00
9.1000000000e-01 1.0000000000e-02 0.0000000000e+00
9.2000000000e-01 1.0000000000e-02 0.0000000000e+00
[...]
CELL_DATA 10000

SCALARS massDensity float
LOOKUP_TABLE default
1.2013941144e+00
1.2014052423e+00
1.2014222120e+00
1.2014481056e+00
1.2014826456e+00
1.2015254834e+00
1.2015762056e+00
1.2016343405e+00
1.2016993621e+00
1.2017706974e+00
1.2018477327e+00
1.2019298222e+00
1.2020162954e+00
1.2021064665e+00
1.2021996424e+00
1.2022951313e+00
1.2023922511e+00
1.2024903366e+00
1.2025887471e+00
1.2026868725e+00
1.2027841388e+00
1.2028800135e+00
1.2029740086e+00
1.2030656846e+00
1.2031546517e+00
1.2032405718e+00
1.2033231582e+00
1.2034021755e+00
1.2034774386e+00
1.2035488107e+00
1.2036162007e+00
1.2036795609e+00
1.2037388833e+00
1.2037941965e+00
1.2038455614e+00
1.2038930680e+00
1.2039368309e+00
1.2039769859e+00
1.2040136860e+00
1.2040470980e+00
1.2040773986e+00
1.2041047719e+00
1.2041294060e+00
1.2041514905e+00
1.2041712142e+00
1.2041887633e+00
1.2042043190e+00
1.2042180568e+00
1.2042301449e+00
1.2042407436e+00
1.2042500042e+00
1.2042580688e+00
1.2042650703e+00
1.2042711317e+00
1.2042763668e+00
1.2042808798e+00
1.2042847661e+00
1.2042881121e+00
1.2042909961e+00
1.2042934883e+00
1.2042956518e+00
1.2042975424e+00
1.2042992096e+00
1.2043006971e+00
1.2043020427e+00
1.2043032793e+00
1.2043044352e+00
1.2043055341e+00
1.2043065961e+00
1.2043076377e+00
1.2043086718e+00
1.2043097089e+00
1.2043107564e+00
1.2043118197e+00
1.2043129018e+00
1.2043140042e+00
1.2043151265e+00
1.2043162671e+00
1.2043174233e+00
1.2043185915e+00
1.2043197671e+00
1.2043209451e+00
1.2043221201e+00
1.2043232861e+00
1.2043244371e+00
1.2043255665e+00
1.2043266676e+00
1.2043277331e+00
1.2043287551e+00
1.2043297247e+00
1.2043306316e+00
1.2043314637e+00
1.2043322059e+00
1.2043328400e+00
1.2043333428e+00
1.2043336855e+00
1.2043338325e+00
1.2043337414e+00
1.2043333673e+00
1.2043367756e+00
1.2014052423e+00
1.2014170795e+00
1.2014343916e+00
1.2014604948e+00
1.2014951467e+00
1.2015380221e+00
1.2015887240e+00
1.2016467908e+00
1.2017117042e+00
1.2017828959e+00
1.2018597565e+00
1.2019416431e+00
1.2020278883e+00
1.2021178086e+00
1.2022107134e+00
1.2023059132e+00
1.2024027284e+00
1.2025004961e+00
1.2025985781e+00
1.2026963663e+00
1.2027932896e+00
1.2028888175e+00
1.2029824647e+00
1.2030737937e+00
1.2031624171e+00
1.2032479985e+00
1.2033302536e+00
1.2034089487e+00
1.2034839004e+00
1.2035549732e+00
1.2036220776e+00
1.2036851670e+00
1.2037442344e+00
1.2037993090e+00
1.2038504525e+00
1.2038977550e+00
1.2039413317e+00
1.2039813181e+00
1.2040178673e+00
1.2040511454e+00
1.2040813290e+00
1.2041086013e+00
1.2041331496e+00
1.2041551628e+00
1.2041748285e+00
1.2041923316e+00
1.2042078524e+00
1.2042215649e+00
1.2042336360e+00
1.2042442244e+00
1.2042534801e+00
1.2042615438e+00
1.2042685465e+00
1.2042746100e+00
1.2042798464e+00
1.2042843584e+00
1.2042882397e+00
1.2042915753e+00
1.2042944420e+00
1.2042969086e+00
1.2042990366e+00
1.2043008806e+00
1.2043024889e+00
1.2043039037e+00
1.2043051620e+00
1.2043062956e+00
1.2043073319e+00
1.2043082941e+00
1.2043092016e+00
1.2043100705e+00
1.2043109138e+00
1.2043117417e+00
1.2043125621e+00
1.2043133807e+00
1.2043142013e+00
1.2043150261e+00
1.2043158559e+00
1.2043166905e+00
1.2043175285e+00
1.2043183680e+00
1.2043192062e+00
1.2043200401e+00
1.2043208663e+00
1.2043216812e+00
1.2043224809e+00
1.2043232615e+00
1.2043240188e+00
1.2043247485e+00
1.2043254459e+00
1.2043261058e+00
1.2043267223e+00
1.2043272889e+00
1.2043277974e+00
1.2043282389e+00
1.2043286028e+00
1.2043288777e+00
1.2043290528e+00
1.2043291211e+00
1.2043290876e+00
1.2043331666e+00
1.2014222120e+00
1.2014343916e+00
1.2014517257e+00
1.2014777556e+00
1.2015122530e+00
1.2015549050e+00
1.2016053233e+00
1.2016630539e+00
1.2017275842e+00
1.2017983515e+00
1.2018747508e+00
1.2019561442e+00
1.2020418682e+00
1.2021312442e+00
1.2022235854e+00
1.2023182072e+00
1.2024144334e+00
1.2025116058e+00
1.2026090896e+00
1.2027062810e+00
1.2028026120e+00
1.2028975557e+00
1.2029906295e+00
1.2030813991e+00
1.2031694791e+00
1.2032545359e+00
1.2033362864e+00
1.2034144990e+00
1.2034889910e+00
1.2035596283e+00
1.2036263218e+00
1.2036890253e+00
1.2037477319e+00
1.2038024709e+00
1.2038533033e+00
1.2039003191e+00
1.2039436324e+00
1.2039833781e+00
1.2040197082e+00
1.2040527880e+00
1.2040827926e+00
1.2041099044e+00
1.2041343093e+00
1.2041561949e+00
1.2041757477e+00
1.2041931515e+00
1.2042085851e+00
1.2042222218e+00
1.2042342271e+00
1.2042447588e+00
1.2042539660e+00
1.2042619883e+00
1.2042689561e+00
1.2042749904e+00
1.2042802024e+00
1.2042846945e+00
1.2042885596e+00
1.2042918822e+00
1.2042947386e+00
1.2042971972e+00
1.2042993191e+00
1.2043011584e+00
1.2043027631e+00
1.2043041751e+00
1.2043054309e+00
1.2043065622e+00
1.2043075958e+00
1.2043085547e+00
1.2043094580e+00
1.2043103214e+00
1.2043111576e+00
1.2043119765e+00
1.2043127859e+00
1.2043135910e+00
1.2043143955e+00
1.2043152015e+00
1.2043160097e+00
1.2043168195e+00
1.2043176298e+00
1.2043184386e+00
1.2043192431e+00
1.2043200407e+00
1.2043208280e+00
1.2043216017e+00
1.2043223585e+00
1.2043230947e+00
1.2043238069e+00
1.2043244914e+00
1.2043251444e+00
1.2043257618e+00
1.2043263394e+00
1.2043268722e+00
1.2043273552e+00
1.2043277828e+00
1.2043281498e+00
1.2043284518e+00
1.2043286880e+00
1.2043288645e+00
1.2043290017e+00
1.2043333900e+00
1.2014481056e+00
1.2014604948e+00
1.2014777556e+00
1.2015036138e+00
1.2015378451e+00
1.2015801428e+00
1.2016301260e+00
1.2016873474e+00
1.2017513013e+00
1.2018214313e+00
1.2018971395e+00
1.2019777938e+00
1.2020627379e+00
1.2021512988e+00
1.2022427971e+00
1.2023365536e+00
1.2024318993e+00
1.2025281813e+00
1.2026247712e+00
1.2027210704e+00
1.2028165166e+00
1.2029105874e+00
1.2030028052e+00
1.2030927391e+00
1.2031800082e+00
1.2032642814e+00
1.2033452787e+00
1.2034227704e+00
1.2034965762e+00
1.2035665626e+00
1.2036326421e+00
1.2036947686e+00
1.2037529355e+00
1.2038071717e+00
1.2038575381e+00
1.2039041235e+00
1.2039470413e+00
1.2039864249e+00
1.2040224250e+00
1.2040552053e+00
1.2040849393e+00
1.2041118076e+00
1.2041359945e+00
1.2041576857e+00
1.2041770659e+00
1.2041943171e+00
1.2042096166e+00
1.2042231357e+00
1.2042350387e+00
1.2042454817e+00
1.2042546123e+00
1.2042625690e+00
1.2042694809e+00
1.2042754678e+00
1.2042806401e+00
1.2042850989e+00
1.2042889365e+00
1.2042922367e+00
1.2042950748e+00
1.2042975187e+00
1.2042996288e+00
1.2043014589e+00
1.2043030563e+00
1.2043044624e+00
1.2043057133e+00
1.2043068402e+00
1.2043078696e+00
1.2043088241e+00
1.2043097223e+00
1.2043105797e+00
1.2043114085e+00
1.2043122184e+00
1.2043130168e+00
1.2043138087e+00
1.2043145977e+00
1.2043153854e+00
1.2043161725e+00
1.2043169585e+00
1.2043177420e+00
1.2043185210e+00
1.2043192932e+00
1.2043200557e+00
1.2043208056e+00
1.2043215400e+00
1.2043222557e+00
1.2043229499e+00
1.2043236196e+00
1.2043242619e+00
1.2043248740e+00
1.2043254531e+00
1.2043259961e+00
1.2043265003e+00
1.2043269628e+00
1.2043273811e+00
1.2043277536e+00
1.2043280808e+00
1.2043283668e+00
1.2043286222e+00
1.2043288687e+00
1.2043334105e+00
1.2014826456e+00
1.2014951467e+00
1.2015122530e+00
1.2015378451e+00
1.2015716990e+00
1.2016135124e+00
1.2016629102e+00
1.2017194522e+00
1.2017826399e+00
1.2018519253e+00
1.2019267176e+00
1.2020063939e+00
1.2020903055e+00
1.2021777886e+00
1.2022681715e+00
1.2023607843e+00
1.2024549654e+00
1.2025500706e+00
1.2026454787e+00
1.2027405991e+00
1.2028348759e+00
1.2029277936e+00
1.2030188801e+00
1.2031077105e+00
1.2031939080e+00
1.2032771463e+00
1.2033571485e+00
1.2034336882e+00
1.2035065870e+00
1.2035757137e+00
1.2036409814e+00
1.2037023452e+00
1.2037597984e+00
1.2038133697e+00
1.2038631192e+00
1.2039091348e+00
1.2039515283e+00
1.2039904319e+00
1.2040259940e+00
1.2040583765e+00
1.2040877508e+00
1.2041142950e+00
1.2041381913e+00
1.2041596229e+00
1.2041787723e+00
1.2041958192e+00
1.2042109386e+00
1.2042242997e+00
1.2042360646e+00
1.2042463877e+00
1.2042554145e+00
1.2042632820e+00
1.2042701175e+00
1.2042760394e+00
1.2042811568e+00
1.2042855694e+00
1.2042893686e+00
1.2042926369e+00
1.2042954489e+00
1.2042978715e+00
1.2042999645e+00
1.2043017808e+00
1.2043033671e+00
1.2043047643e+00
1.2043060080e+00
1.2043071286e+00
1.2043081524e+00
1.2043091014e+00
1.2043099937e+00
1.2043108446e+00
1.2043116657e+00
1.2043124666e+00
1.2043132541e+00
1.2043140332e+00
1.2043148069e+00
1.2043155770e+00
1.2043163437e+00
1.2043171066e+00
1.2043178643e+00
1.2043186148e+00
1.2043193557e+00
1.2043200846e+00
1.2043207987e+00
1.2043214954e+00
1.2043221720e+00
1.2043228263e+00
1.2043234558e+00
1.2043240586e+00
1.2043246327e+00
1.2043251764e+00
1.2043256881e+00
1.2043261667e+00
1.2043266112e+00
1.2043270214e+00
1.2043273983e+00
1.2043277449e+00
1.2043280674e+00
1.2043283768e+00
1.2043286910e+00
1.2043332916e+00
1.2015254834e+00
1.2015380221e+00
1.2015549050e+00
1.2015801428e+00
1.2016135124e+00
1.2016547149e+00
1.2017033815e+00
1.2017590787e+00
1.2018213169e+00
1.2018895563e+00
1.2019632166e+00
1.2020416838e+00
1.2021243202e+00
1.2022104718e+00
1.2022994778e+00
1.2023906779e+00
1.2024834216e+00
1.2025770738e+00
1.2026710237e+00
1.2027646889e+00
1.2028575228e+00
1.2029490173e+00
1.2030387083e+00
1.2031261768e+00
1.2032110525e+00
1.2032930137e+00
1.2033717883e+00
1.2034471532e+00
1.2035189331e+00
1.2035869987e+00
1.2036512649e+00
1.2037116871e+00
1.2037682592e+00
1.2038210093e+00
1.2038699969e+00
1.2039153084e+00
1.2039570540e+00
1.2039953638e+00
1.2040303841e+00
1.2040622741e+00
1.2040912027e+00
1.2041173453e+00
1.2041408810e+00
1.2041619903e+00
1.2041808529e+00
1.2041976455e+00
1.2042125406e+00
1.2042257046e+00
1.2042372972e+00
1.2042474701e+00
1.2042563669e+00
1.2042641222e+00
1.2042708615e+00
1.2042767014e+00
1.2042817491e+00
1.2042861031e+00
1.2042898532e+00
1.2042930806e+00
1.2042958589e+00
1.2042982540e+00
1.2043003245e+00
1.2043021227e+00
1.2043036944e+00
1.2043050798e+00
1.2043063138e+00
1.2043074264e+00
1.2043084432e+00
1.2043093855e+00
1.2043102713e+00
1.2043111151e+00
1.2043119285e+00
1.2043127202e+00
1.2043134971e+00
1.2043142635e+00
1.2043150225e+00
1.2043157755e+00
1.2043165226e+00
1.2043172633e+00
1.2043179961e+00
1.2043187191e+00
1.2043194301e+00
1.2043201266e+00
1.2043208064e+00
1.2043214670e+00
1.2043221063e+00
1.2043227225e+00
1.2043233139e+00
1.2043238793e+00
1.2043244177e+00
1.2043249283e+00
1.2043254109e+00
1.2043258655e+00
1.2043262929e+00
1.2043266944e+00
1.2043270726e+00
1.2043274318e+00
1.2043277786e+00
1.2043281228e+00
1.2043284780e+00
1.2043330803e+00
1.2015762056e+00
1.2015887240e+00
1.2016053233e+00
1.2016301260e+00
1.2016629102e+00
1.2017033815e+00
1.2017511768e+00
1.2018058715e+00
1.2018669842e+00
1.2019339862e+00
1.2020063072e+00
1.2020833456e+00
1.2021644747e+00
1.2022490535e+00
1.2023364326e+00
1.2024259647e+00
1.2025170104e+00
1.2026089473e+00
1.2027011748e+00
1.2027931223e+00
1.2028842524e+00
1.2029740672e+00
1.2030621104e+00
1.2031479716e+00
1.2032312868e+00
1.2033117408e+00
1.2033890662e+00
1.2034630445e+00
1.2035335034e+00
1.2036003166e+00
1.2036634000e+00
1.2037227107e+00
1.2037782422e+00
1.2038300226e+00
1.2038781100e+00
1.2039225896e+00
1.2039635694e+00
1.2040011773e+00
1.2040355568e+00
1.2040668643e+00
1.2040952653e+00
1.2041209322e+00
1.2041440407e+00
1.2041647680e+00
1.2041832903e+00
1.2041997811e+00
1.2042144096e+00
1.2042273392e+00
1.2042387266e+00
1.2042487206e+00
1.2042574622e+00
1.2042650835e+00
1.2042717078e+00
1.2042774493e+00
1.2042824134e+00
1.2042866968e+00
1.2042903875e+00
1.2042935655e+00
1.2042963028e+00
1.2042986642e+00
1.2043007072e+00
1.2043024830e+00
1.2043040367e+00
1.2043054075e+00
1.2043066297e+00
1.2043077324e+00
1.2043087408e+00
1.2043096756e+00
1.2043105541e+00
1.2043113905e+00
1.2043121957e+00
1.2043129784e+00
1.2043137447e+00
1.2043144989e+00
1.2043152436e+00
1.2043159801e+00
1.2043167084e+00
1.2043174277e+00
1.2043181366e+00
1.2043188332e+00
1.2043195154e+00
1.2043201809e+00
1.2043208277e+00
1.2043214537e+00
1.2043220573e+00
1.2043226372e+00
1.2043231923e+00
1.2043237220e+00
1.2043242263e+00
1.2043247055e+00
1.2043251601e+00
1.2043255915e+00
1.2043260016e+00
1.2043263928e+00
1.2043267687e+00
1.2043271340e+00
1.2043274952e+00
1.2043278604e+00
1.2043282396e+00
1.2043328084e+00
1.2016343405e+00
1.2016467908e+00
1.2016630539e+00
1.2016873474e+00
1.2017194522e+00
1.2017590787e+00
1.2018058715e+00
1.2018594139e+00
1.2019192357e+00
1.2019848186e+00
1.2020556057e+00
1.2021310073e+00
1.2022104111e+00
1.2022931889e+00
1.2023787064e+00
1.2024663291e+00
1.2025554322e+00
1.2026454058e+00
1.2027356632e+00
1.2028256450e+00
1.2029148263e+00
1.2030027191e+00
1.2030888778e+00
1.2031729001e+00
1.2032544306e+00
1.2033331602e+00
1.2034088282e+00
1.2034812202e+00
1.2035501684e+00
1.2036155486e+00
1.2036772794e+00
1.2037353181e+00
1.2037896592e+00
1.2038403298e+00
1.2038873872e+00
1.2039309144e+00
1.2039710176e+00
1.2040078216e+00
1.2040414672e+00
1.2040721071e+00
1.2040999037e+00
1.2041250251e+00
1.2041476437e+00
1.2041679325e+00
1.2041860642e+00
1.2042022083e+00
1.2042165305e+00
1.2042291905e+00
1.2042403416e+00
1.2042501297e+00
1.2042586924e+00
1.2042661590e+00
1.2042726503e+00
1.2042782779e+00
1.2042831452e+00
1.2042873466e+00
1.2042909683e+00
1.2042940886e+00
1.2042967781e+00
1.2042991000e+00
1.2043011107e+00
1.2043028602e+00
1.2043043925e+00
1.2043057461e+00
1.2043069543e+00
1.2043080455e+00
1.2043090442e+00
1.2043099705e+00
1.2043108411e+00
1.2043116696e+00
1.2043124666e+00
1.2043132401e+00
1.2043139961e+00
1.2043147384e+00
1.2043154693e+00
1.2043161899e+00
1.2043169001e+00
1.2043175989e+00
1.2043182849e+00
1.2043189561e+00
1.2043196106e+00
1.2043202464e+00
1.2043208615e+00
1.2043214543e+00
1.2043220236e+00
1.2043225686e+00
1.2043230888e+00
1.2043235844e+00
1.2043240560e+00
1.2043245047e+00
1.2043249321e+00
1.2043253404e+00
1.2043257324e+00
1.2043261113e+00
1.2043264813e+00
1.2043268472e+00
1.2043272151e+00
1.2043275915e+00
1.2043279836e+00
1.2043324975e+00
1.2016993621e+00
1.2017117042e+00
1.2017275842e+00
1.2017513013e+00
1.2017826399e+00
1.2018213169e+00
1.2018669842e+00
1.2019192357e+00
1.2019776116e+00
1.2020416072e+00
1.2021106781e+00
1.2021842499e+00
1.2022617245e+00
1.2023424900e+00
1.2024259263e+00
1.2025114159e+00
1.2025983479e+00
1.2026861286e+00
1.2027741844e+00
1.2028619707e+00
1.2029489746e+00
1.2030347210e+00
1.2031187743e+00
1.2032007430e+00
1.2032802797e+00
1.2033570838e+00
1.2034309003e+00
1.2035015210e+00
1.2035687814e+00
1.2036325614e+00
1.2036927809e+00
1.2037493991e+00
1.2038024101e+00
1.2038518410e+00
1.2038977473e+00
1.2039402105e+00
1.2039793339e+00
1.2040152394e+00
1.2040480643e+00
1.2040779579e+00
1.2041050781e+00
1.2041295894e+00
1.2041516595e+00
1.2041714575e+00
1.2041891516e+00
1.2042049074e+00
1.2042188861e+00
1.2042312437e+00
1.2042421298e+00
1.2042516864e+00
1.2042600481e+00
1.2042673408e+00
1.2042736823e+00
1.2042791818e+00
1.2042839397e+00
1.2042880485e+00
1.2042915922e+00
1.2042946472e+00
1.2042972823e+00
1.2042995592e+00
1.2043015331e+00
1.2043032525e+00
1.2043047604e+00
1.2043060943e+00
1.2043072864e+00
1.2043083646e+00
1.2043093523e+00
1.2043102692e+00
1.2043111313e+00
1.2043119515e+00
1.2043127401e+00
1.2043135045e+00
1.2043142503e+00
1.2043149810e+00
1.2043156987e+00
1.2043164040e+00
1.2043170967e+00
1.2043177759e+00
1.2043184398e+00
1.2043190867e+00
1.2043197146e+00
1.2043203218e+00
1.2043209064e+00
1.2043214674e+00
1.2043220037e+00
1.2043225151e+00
1.2043230016e+00
1.2043234642e+00
1.2043239040e+00
1.2043243230e+00
1.2043247235e+00
1.2043251085e+00
1.2043254813e+00
1.2043258460e+00
1.2043262069e+00
1.2043265690e+00
1.2043269376e+00
1.2043273183e+00
1.2043277163e+00
1.2043321616e+00
1.2017706974e+00
1.2017828959e+00
1.2017983515e+00
1.2018214313e+00
1.2018519253e+00
1.2018895563e+00
1.2019339862e+00
1.2019848186e+00
1.2020416072e+00
1.2021038598e+00
1.2021710479e+00
1.2022426119e+00
1.2023179709e+00
1.2023965288e+00
1.2024776838e+00
1.2025608337e+00
1.2026453861e+00
1.2027307619e+00
1.2028164048e+00
1.2029017840e+00
1.2029864017e+00
1.2030697948e+00
1.2031515410e+00
1.2032312584e+00
1.2033086104e+00
1.2033833038e+00
1.2034550916e+00
1.2035237705e+00
1.2035891816e+00
1.2036512074e+00
1.2037097709e+00
1.2037648319e+00
1.2038163853e+00
1.2038644570e+00
1.2039091016e+00
1.2039503980e+00
1.2039884471e+00
1.2040233673e+00
1.2040552922e+00
1.2040843668e+00
1.2041107450e+00
1.2041345866e+00
1.2041560548e+00
1.2041753138e+00
1.2041925273e+00
1.2042078562e+00
1.2042214575e+00
1.2042334826e+00
1.2042440770e+00
1.2042533790e+00
1.2042615192e+00
1.2042686203e+00
1.2042747967e+00
1.2042801546e+00
1.2042847918e+00
1.2042887981e+00
1.2042922555e+00
1.2042952380e+00
1.2042978127e+00
1.2043000397e+00
1.2043019724e+00
1.2043036582e+00
1.2043051388e+00
1.2043064506e+00
1.2043076248e+00
1.2043086884e+00
1.2043096641e+00
1.2043105707e+00
1.2043114236e+00
1.2043122353e+00
1.2043130152e+00
1.2043137706e+00
1.2043145064e+00
1.2043152259e+00
1.2043159307e+00
1.2043166213e+00
1.2043172973e+00
1.2043179575e+00
1.2043186003e+00
1.2043192238e+00
1.2043198262e+00
1.2043204058e+00
1.2043209612e+00
1.2043214914e+00
1.2043219959e+00
1.2043224748e+00
1.2043229288e+00
1.2043233592e+00
1.2043237681e+00
1.2043241578e+00
1.2043245315e+00
1.2043248927e+00
1.2043252454e+00
1.2043255940e+00
1.2043259432e+00
1.2043262979e+00
1.2043266629e+00
1.2043270430e+00
1.2043274422e+00
1.2043318103e+00
1.2018477327e+00
1.2018597565e+00
1.2018747508e+00
1.2018971395e+00
1.2019267176e+00
1.2019632166e+00
1.2020063072e+00
1.2020556057e+00
1.2021106781e+00
1.2021710479e+00
1.2022362016e+00
1.2023055976e+00
1.2023786716e+00
1.2024548466e+00
1.2025335379e+00
1.2026141629e+00
1.2026961459e+00
1.2027789267e+00
1.2028619647e+00
1.2029447466e+00
1.2030267884e+00
1.2031076427e+00
1.2031868986e+00
1.2032641873e+00
1.2033391813e+00
1.2034115976e+00
1.2034811959e+00
1.2035477800e+00
1.2036111953e+00
1.2036713287e+00
1.2037281049e+00
1.2037814858e+00
1.2038314660e+00
1.2038780712e+00
1.2039213539e+00
1.2039613912e+00
1.2039982805e+00
1.2040321370e+00
1.2040630901e+00
1.2040912806e+00
1.2041168574e+00
1.2041399756e+00
1.2041607933e+00
1.2041794700e+00
1.2041961639e+00
1.2042110314e+00
1.2042242243e+00
1.2042358897e+00
1.2042461685e+00
1.2042551947e+00
1.2042630949e+00
1.2042699883e+00
1.2042759856e+00
1.2042811898e+00
1.2042856959e+00
1.2042895908e+00
1.2042929541e+00
1.2042958577e+00
1.2042983665e+00
1.2043005388e+00
1.2043024266e+00
1.2043040756e+00
1.2043055262e+00
1.2043068137e+00
1.2043079683e+00
1.2043090160e+00
1.2043099785e+00
1.2043108740e+00
1.2043117173e+00
1.2043125200e+00
1.2043132912e+00
1.2043140375e+00
1.2043147634e+00
1.2043154720e+00
1.2043161643e+00
1.2043168409e+00
1.2043175008e+00
1.2043181428e+00
1.2043187652e+00
1.2043193663e+00
1.2043199441e+00
1.2043204972e+00
1.2043210244e+00
1.2043215248e+00
1.2043219985e+00
1.2043224460e+00
1.2043228683e+00
1.2043232674e+00
1.2043236459e+00
1.2043240067e+00
1.2043243535e+00
1.2043246905e+00
1.2043250222e+00
1.2043253532e+00
1.2043256886e+00
1.2043260330e+00
1.2043263913e+00
1.2043267674e+00
1.2043271647e+00
1.2043314503e+00
1.2019298222e+00
1.2019416431e+00
1.2019561442e+00
1.2019777938e+00
1.2020063939e+00
1.2020416838e+00
1.2020833456e+00
1.2021310073e+00
1.2021842499e+00
1.2022426119e+00
1.2023055976e+00
1.2023726825e+00
1.2024433220e+00
1.2025169573e+00
1.2025930243e+00
1.2026709587e+00
1.2027502052e+00
1.2028302211e+00
1.2029104852e+00
1.2029904999e+00
1.2030697990e+00
1.2031479486e+00
1.2032245530e+00
1.2032992546e+00
1.2033717381e+00
1.2034417291e+00
1.2035089962e+00
1.2035733492e+00
1.2036346396e+00
1.2036927574e+00
1.2037476308e+00
1.2037992222e+00
1.2038475273e+00
1.2038925704e+00
1.2039344029e+00
1.2039730989e+00
1.2040087531e+00
1.2040414764e+00
1.2040713943e+00
1.2040986425e+00
1.2041233654e+00
1.2041457126e+00
1.2041658370e+00
1.2041838926e+00
1.2042000326e+00
1.2042144077e+00
1.2042271650e+00
1.2042384464e+00
1.2042483882e+00
1.2042571198e+00
1.2042647637e+00
1.2042714349e+00
1.2042772407e+00
1.2042822805e+00
1.2042866461e+00
1.2042904217e+00
1.2042936840e+00
1.2042965028e+00
1.2042989408e+00
1.2043010544e+00
1.2043028936e+00
1.2043045028e+00
1.2043059211e+00
1.2043071823e+00
1.2043083156e+00
1.2043093460e+00
1.2043102944e+00
1.2043111781e+00
1.2043120112e+00
1.2043128046e+00
1.2043135669e+00
1.2043143042e+00