# vtk DataFile Version 2.0
Blank
ASCII
DATASET STRUCTURED_GRID
DIMENSIONS 101 101 2
POINTS 20402 float
0.0000000000e+00 0.0000000000e+00 0.0000000000e+00
1.0000000000e-02 0.0000000000e+00 0.0000000000e+00
2.0000000000e-02 0.0000000000e+00 0.0000000000e+00
3.0000000000e-02 0.0000000000e+00 0.0000000000e+00
4.0000000000e-02 0.0000000000e+00 0.0000000000e+00
5.0000000000e-02 0.0000000000e+00 0.0000000000e+00
6.0000000000e-02 0.0000000000e+00 0.0000000000e+00
7.0000000000e-02 0.0000000000e+00 0.0000000000e+00
8.0000000000e-02 0.0000000000e+00 0.0000000000e+00
9.0000000000e-02 0.0000000000e+00 0.0000000000e+00
1.0000000000e-01 0.0000000000e+00 0.0000000000e+00
1.1000000000e-01 0.0000000000e+00 0.0000000000e+00
1.2000000000e-01 0.0000000000e+00 0.0000000000e+00
1.3000000000e-01 0.0000000000e+00 0.0000000000e+00
1.4000000000e-01 0.0000000000e+00 0.0000000000e+00
1.5000000000e-01 0.0000000000e+00 0.0000000000e+00
1.6000000000e-01 0.0000000000e+00 0.0000000000e+00
1.7000000000e-01 0.0000000000e+00 0.0000000000e+00
1.8000000000e-01 0.0000000000e+00 0.0000000000e+00
1.9000000000e-01 0.0000000000e+00 0.0000000000e+00
2.0000000000e-01 0.0000000000e+00 0.0000000000e+00
2.1000000000e-01 0.0000000000e+00 0.0000000000e+00
2.2000000000e-01 0.0000000000e+00 0.0000000000e+00
2.3000000000e-01 0.0000000000e+00 0.0000000000e+00
2.4000000000e-01 0.0000000000e+00 0.0000000000e+00
2.5000000000e-01 0.0000000000e+00 0.0000000000e+00
2.6000000000e-01 0.0000000000e+00 0.0000000000e+00
2.7000000000e-01 0.0000000000e+00 0.0000000000e+00
2.8000000000e-01 0.0000000000e+00 0.0000000000e+00
2.9000000000e-01 0.0000000000e+00 0.0000000000e+00
3.0000000000e-01 0.0000000000e+00 0.0000000000e+00
3.1000000000e-01 0.0000000000e+00 0.0000000000e+00
3.2000000000e-01 0.0000000000e+00 0.0000000000e+00
3.3000000000e-01 0.0000000000e+00 0.0000000000e+00
3.4000000000e-01 0.0000000000e+00 0.0000000000e+00
3.5000000000e-01 0.0000000000e+00 0.0000000000e+00
3.6000000000e-01 0.0000000000e+00 0.0000000000e+00
3.7000000000e-01 0.0000000000e+00 0.0000000000e+00
3.8000000000e-01 0.0000000000e+00 0.0000000000e+00
3.9000000000e-01 0.0000000000e+00 0.0000000000e+00
4.0000000000e-01 0.0000000000e+00 0.0000000000e+00
4.1000000000e-01 0.0000000000e+00 0.0000000000e+00
4.2000000000e-01 0.0000000000e+00 0.0000000000e+00
4.3000000000e-01 0.0000000000e+00 0.0000000000e+00
4.4000000000e-01 0.0000000000e+00 0.0000000000e+00
4.5000000000e-01 0.0000000000e+00 0.0000000000e+00
4.6000000000e-01 0.0000000000e+00 0.0000000000e+00
4.7000000000e-01 0.0000000000e+00 0.0000000000e+00
4.8000000000e-01 0.0000000000e+00 0.0000000000e+00
4.9000000000e-01 0.0000000000e+00 0.0000000000e+00
5.0000000000e-01 0.0000000000e+00 0.0000000000e+00
5.1000000000e-01 0.0000000000e+00 0.0000000000e+00
5.2000000000e-01 0.0000000000e+00 0.0000000000e+00
5.3000000000e-01 0.0000000000e+00 0.0000000000e+00
5.4000000000e-01 0.0000000000e+00 0.0000000000e+00
5.5000000000e-01 0.0000000000e+00 0.0000000000e+00
5.6000000000e-01 0.0000000000e+00 0.0000000000e+00
5.7000000000e-01 0.0000000000e+00 0.0000000000e+00
5.8000000000e-01 0.0000000000e+00 0.0000000000e+00
5.9000000000e-01 0.0000000000e+00 0.0000000000e+00
6.0000000000e-01 0.0000000000e+00 0.0000000000e+00
6.1000000000e-01 0.0000000000e+00 0.0000000000e+00
6.2000000000e-01 0.0000000000e+00 0.0000000000e+00
6.3000000000e-01 0.0000000000e+00 0.0000000000e+00
6.4000000000e-01 0.0000000000e+00 0.0000000000e+00
6.5000000000e-01 0.0000000000e+00 0.0000000000e+00
6.6000000000e-01 0.0000000000e+00 0.0000000000e+00
6.7000000000e-01 0.0000000000e+00 0.0000000000e+00
6.8000000000e-01 0.0000000000e+00 0.0000000000e+00
6.9000000000e-01 0.0000000000e+00 0.0000000000e+00
7.0000000000e-01 0.0000000000e+00 0.0000000000e+00
7.1000000000e-01 0.0000000000e+00 0.0000000000e+00
7.2000000000e-01 0.0000000000e+00 0.0000000000e+00
7.3000000000e-01 0.0000000000e+00 0.0000000000e+00
7.4000000000e-01 0.0000000000e+00 0.0000000000e+00
7.5000000000e-01 0.0000000000e+00 0.0000000000e+00
7.6000000000e-01 0.0000000000e+00 0.0000000000e+00
7.7000000000e-01 0.0000000000e+00 0.0000000000e+00
7.8000000000e-01 0.0000000000e+00 0.0000000000e+00
7.9000000000e-01 0.0000000000e+00 0.0000000000e+00
8.0000000000e-01 0.0000000000e+00 0.0000000000e+00
8.1000000000e-01 0.0000000000e+00 0.0000000000e+00
8.2000000000e-01 0.0000000000e+00 0.0000000000e+00
8.3000000000e-01 0.0000000000e+00 0.0000000000e+00
8.4000000000e-01 0.0000000000e+00 0.0000000000e+00
8.5000000000e-01 0.0000000000e+00 0.0000000000e+00
8.6000000000e-01 0.0000000000e+00 0.0000000000e+00
8.7000000000e-01 0.0000000000e+00 0.0000000000e+00
8.8000000000e-01 0.0000000000e+00 0.0000000000e+00
8.9000000000e-01 0.0000000000e+00 0.0000000000e+00
9.0000000000e-01 0.0000000000e+00 0.0000000000e+00
9.1000000000e-01 0.0000000000e+00 0.0000000000e+00
9.2000000000e-01 0.0000000000e+00 0.0000000000e+00
9.3000000000e-01 0.0000000000e+00 0.0000000000e+00
9.4000000000e-01 0.0000000000e+00 0.0000000000e+00
9.5000000000e-01 0.0000000000e+00 0.0000000000e+00
9.6000000000e-01 0.0000000000e+00 0.0000000000e+00
9.7000000000e-01 0.0000000000e+00 0.0000000000e+00
9.8000000000e-01 0.0000000000e+00 0.0000000000e+00
9.9000000000e-01 0.0000000000e+00 0.0000000000e+00
1.0000000000e+00 0.0000000000e+00 0.0000000000e+00
0.0000000000e+00 1.0000000000e-02 0.0000000000e+00
1.0000000000e-02 1.0000000000e-02 0.0000000000e+00
2.0000000000e-02 1.0000000000e-02 0.0000000000e+00
3.0000000000e-02 1.0000000000e-02 0.0000000000e+00
4.0000000000e-02 1.0000000000e-02 0.0000000000e+00
5.0000000000e-02 1.0000000000e-02 0.0000000000e+00
6.0000000000e-02 1.0000000000e-02 0.0000000000e+00
7.0000000000e-02 1.0000000000e-02 0.0000000000e+00
8.0000000000e-02 1.0000000000e-02 0.0000000000e+00
9.0000000000e-02 1.0000000000e-02 0.0000000000e+00
1.0000000000e-01 1.0000000000e-02 0.0000000000e+00
1.1000000000e-01 1.0000000000e-02 0.0000000000e+00
1.2000000000e-01 1.0000000000e-02 0.0000000000e+00
1.3000000000e-01 1.0000000000e-02 0.0000000000e+00
1.4000000000e-01 1.0000000000e-02 0.0000000000e+00
1.5000000000e-01 1.0000000000e-02 0.0000000000e+00
1.6000000000e-01 1.0000000000e-02 0.0000000000e+00
1.7000000000e-01 1.0000000000e-02 0.0000000000e+00
1.8000000000e-01 1.0000000000e-02 0.0000000000e+00
1.9000000000e-01 1.0000000000e-02 0.0000000000e+00
2.0000000000e-01 1.0000000000e-02 0.0000000000e+00
2.1000000000e-01 1.0000000000e-02 0.0000000000e+00
2.2000000000e-01 1.0000000000e-02 0.0000000000e+00
2.3000000000e-01 1.0000000000e-02 0.0000000000e+00
2.4000000000e-01 1.0000000000e-02 0.0000000000e+00
2.5000000000e-01 1.0000000000e-02 0.0000000000e+00
2.6000000000e-01 1.0000000000e-02 0.0000000000e+00
2.7000000000e-01 1.0000000000e-02 0.0000000000e+00
2.8000000000e-01 1.0000000000e-02 0.0000000000e+00
2.9000000000e-01 1.0000000000e-02 0.0000000000e+00
3.0000000000e-01 1.0000000000e-02 0.0000000000e+00
3.1000000000e-01 1.0000000000e-02 0.0000000000e+00
3.2000000000e-01 1.0000000000e-02 0.0000000000e+00
3.3000000000e-01 1.0000000000e-02 0.0000000000e+00
3.4000000000e-01 1.0000000000e-02 0.0000000000e+00
3.5000000000e-01 1.0000000000e-02 0.0000000000e+00
3.6000000000e-01 1.0000000000e-02 0.0000000000e+00
3.7000000000e-01 1.0000000000e-02 0.0000000000e+00
3.8000000000e-01 1.0000000000e-02 0.0000000000e+00
3.9000000000e-01 1.0000000000e-02 0.0000000000e+00
4.0000000000e-01 1.0000000000e-02 0.0000000000e+00
4.1000000000e-01 1.0000000000e-02 0.0000000000e+00
4.2000000000e-01 1.0000000000e-02 0.0000000000e+00
4.3000000000e-01 1.0000000000e-02 0.0000000000e+00
4.4000000000e-01 1.0000000000e-02 0.0000000000e+00
4.5000000000e-01 1.0000000000e-02 0.0000000000e+00
4.6000000000e-01 1.0000000000e-02 0.0000000000e+00
4.7000000000e-01 1.0000000000e-02 0.0000000000e+00
4.8000000000e-01 1.0000000000e-02 0.0000000000e+00
4.9000000000e-01 1.0000000000e-02 0.0000000000e+00
5.0000000000e-01 1.0000000000e-02 0.0000000000e+00
5.1000000000e-01 1.0000000000e-02 0.0000000000e+00
5.2000000000e-01 1.0000000000e-02 0.0000000000e+00
5.3000000000e-01 1.0000000000e-02 0.0000000000e+00
5.4000000000e-01 1.0000000000e-02 0.0000000000e+00
5.5000000000e-01 1.0000000000e-02 0.0000000000e+00
5.6000000000e-01 1.0000000000e-02 0.0000000000e+00
5.7000000000e-01 1.0000000000e-02 0.0000000000e+00
5.8000000000e-01 1.0000000000e-02 0.0000000000e+00
5.9000000000e-01 1.0000000000e-02 0.0000000000e+00
6.0000000000e-01 1.0000000000e-02 0.0000000000e+00
6.1000000000e-01 1.0000000000e-02 0.0000000000e+00
6.2000000000e-01 1.0000000000e-02 0.0000000000e+00
6.3000000000e-01 1.0000000000e-02 0.0000000000e+00
6.4000000000e-01 1.0000000000e-02 0.0000000000e+00
6.5000000000e-01 1.0000000000e-02 0.0000000000e+00
6.6000000000e-01 1.0000000000e-02 0.0000000000e+00
6.7000000000e-01 1.0000000000e-02 0.0000000000e+00
6.8000000000e-01 1.0000000000e-02 0.0000000000e+00
6.9000000000e-01 1.0000000000e-02 0.0000000000e+00
7.0000000000e-01 1.0000000000e-02 0.0000000000e+00
7.1000000000e-01 1.0000000000e-02 0.0000000000e+00
7.2000000000e-01 1.0000000000e-02 0.0000000000e+00
7.3000000000e-01 1.0000000000e-02 0.0000000000e+00
7.4000000000e-01 1.0000000000e-02 0.0000000000e+00
7.5000000000e-01 1.0000000000e-02 0.0000000000e+00
7.6000000000e-01 1.0000000000e-02 0.0000000000e+00
7.7000000000e-01 1.0000000000e-02 0.0000000000e+00
7.8000000000e-01 1.0000000000e-02 0.0000000000e+00
7.9000000000e-01 1.0000000000e-02 0.0000000000e+00
8.0000000000e-01 1.0000000000e-02 0.0000000000e+00
8.1000000000e-01 1.0000000000e-02 0.0000000000e+00
8.2000000000e-01 1.0000000000e-02 0.0000000000e+00
8.3000000000e-01 1.0000000000e-02 0.0000000000e+00
8.4000000000e-01 1.0000000000e-02 0.0000000000e+00
8.5000000000e-01 1.0000000000e-02 0.0000000000e+00
8.6000000000e-01 1.0000000000e-02 0.0000000000e+00
8.7000000000e-01 1.0000000000e-02 0.0000000000e+00
8.8000000000e-01 1.0000000000e-02 0.0000000000e+00
8.9000000000e-01 1.0000000000e-02 0.0000000000e+00
9.0000000000e-01 1.0000000000e-02 0.0000000000e+00
9.1000000000e-01 1.0000000000e-02 0.0000000000e+00
9.2000000000e-01 1.0000000000e-02 0.0000000000e+00
[...]
CELL_DATA 10000

SCALARS massDensity float
LOOKUP_TABLE default
1.2015378589e+00
1.2015494537e+00
1.2015647495e+00
1.2015881864e+00
1.2016194996e+00
1.2016583672e+00
1.2017044176e+00
1.2017572317e+00
1.2018163471e+00
1.2018812614e+00
1.2019514380e+00
1.2020263119e+00
1.2021052962e+00
1.2021877893e+00
1.2022731821e+00
1.2023608643e+00
1.2024502325e+00
1.2025406954e+00
1.2026316811e+00
1.2027226418e+00
1.2028130593e+00
1.2029024488e+00
1.2029903633e+00
1.2030763955e+00
1.2031601808e+00
1.2032413978e+00
1.2033197699e+00
1.2033950647e+00
1.2034670936e+00
1.2035357105e+00
1.2036008102e+00
1.2036623262e+00
1.2037202284e+00
1.2037745198e+00
1.2038252340e+00
1.2038724317e+00
1.2039161976e+00
1.2039566368e+00
1.2039938721e+00
1.2040280402e+00
1.2040592891e+00
1.2040877749e+00
1.2041136593e+00
1.2041371071e+00
1.2041582838e+00
1.2041773540e+00
1.2041944792e+00
1.2042098164e+00
1.2042235171e+00
1.2042357260e+00
1.2042465803e+00
1.2042562093e+00
1.2042647337e+00
1.2042722654e+00
1.2042789076e+00
1.2042847549e+00
1.2042898934e+00
1.2042944010e+00
1.2042983476e+00
1.2043017960e+00
1.2043048020e+00
1.2043074149e+00
1.2043096784e+00
1.2043116309e+00
1.2043133061e+00
1.2043147335e+00
1.2043159392e+00
1.2043169457e+00
1.2043177733e+00
1.2043184398e+00
1.2043189612e+00
1.2043193519e+00
1.2043196251e+00
1.2043197929e+00
1.2043198669e+00
1.2043198576e+00
1.2043197755e+00
1.2043196303e+00
1.2043194316e+00
1.2043191886e+00
1.2043189102e+00
1.2043186048e+00
1.2043182809e+00
1.2043179461e+00
1.2043176080e+00
1.2043172733e+00
1.2043169485e+00
1.2043166394e+00
1.2043163512e+00
1.2043160887e+00
1.2043158562e+00
1.2043156575e+00
1.2043154967e+00
1.2043153780e+00
1.2043153061e+00
1.2043152866e+00
1.2043153264e+00
1.2043154326e+00
1.2043156118e+00
1.2043155453e+00
1.2015494537e+00
1.2015619205e+00
1.2015776315e+00
1.2016012919e+00
1.2016326936e+00
1.2016715533e+00
1.2017175241e+00
1.2017702040e+00
1.2018291418e+00
1.2018938436e+00
1.2019637786e+00
1.2020383871e+00
1.2021170861e+00
1.2021992779e+00
1.2022843560e+00
1.2023717137e+00
1.2024607495e+00
1.2025508751e+00
1.2026415205e+00
1.2027321400e+00
1.2028222171e+00
1.2029112691e+00
1.2029988498e+00
1.2030845537e+00
1.2031680169e+00
1.2032489193e+00
1.2033269848e+00
1.2034019815e+00
1.2034737213e+00
1.2035420584e+00
1.2036068876e+00
1.2036681425e+00
1.2037257927e+00
1.2037798411e+00
1.2038303209e+00
1.2038772924e+00
1.2039208398e+00
1.2039610678e+00
1.2039980985e+00
1.2040320681e+00
1.2040631238e+00
1.2040914212e+00
1.2041171214e+00
1.2041403887e+00
1.2041613878e+00
1.2041802829e+00
1.2041972349e+00
1.2042124005e+00
1.2042259307e+00
1.2042379700e+00
1.2042486555e+00
1.2042581161e+00
1.2042664727e+00
1.2042738373e+00
1.2042803134e+00
1.2042859959e+00
1.2042909712e+00
1.2042953178e+00
1.2042991065e+00
1.2043024006e+00
1.2043052567e+00
1.2043077252e+00
1.2043098507e+00
1.2043116725e+00
1.2043132252e+00
1.2043145393e+00
1.2043156417e+00
1.2043165557e+00
1.2043173024e+00
1.2043179000e+00
1.2043183649e+00
1.2043187119e+00
1.2043189542e+00
1.2043191039e+00
1.2043191720e+00
1.2043191688e+00
1.2043191039e+00
1.2043189863e+00
1.2043188244e+00
1.2043186264e+00
1.2043183997e+00
1.2043181515e+00
1.2043178887e+00
1.2043176175e+00
1.2043173439e+00
1.2043170734e+00
1.2043168109e+00
1.2043165611e+00
1.2043163280e+00
1.2043161156e+00
1.2043159272e+00
1.2043157660e+00
1.2043156351e+00
1.2043155379e+00
1.2043154777e+00
1.2043154583e+00
1.2043154838e+00
1.2043155583e+00
1.2043156855e+00
1.2043154786e+00
1.2015647495e+00
1.2015776315e+00
1.2015934380e+00
1.2016170841e+00
1.2016483820e+00
1.2016870647e+00
1.2017327979e+00
1.2017851885e+00
1.2018437924e+00
1.2019081213e+00
1.2019776498e+00
1.2020518220e+00
1.2021300596e+00
1.2022117685e+00
1.2022963465e+00
1.2023831902e+00
1.2024717022e+00
1.2025612973e+00
1.2026514093e+00
1.2027414953e+00
1.2028310423e+00
1.2029195699e+00
1.2030066352e+00
1.2030918344e+00
1.2031748061e+00
1.2032552320e+00
1.2033328376e+00
1.2034073925e+00
1.2034787096e+00
1.2035466440e+00
1.2036110913e+00
1.2036719854e+00
1.2037292962e+00
1.2037830266e+00
1.2038332099e+00
1.2038799059e+00
1.2039231984e+00
1.2039631917e+00
1.2040000072e+00
1.2040337804e+00
1.2040646577e+00
1.2040927938e+00
1.2041183490e+00
1.2041414863e+00
1.2041623699e+00
1.2041811626e+00
1.2041980246e+00
1.2042131113e+00
1.2042265728e+00
1.2042385527e+00
1.2042491869e+00
1.2042586035e+00
1.2042669223e+00
1.2042742546e+00
1.2042807029e+00
1.2042863612e+00
1.2042913155e+00
1.2042956433e+00
1.2042994148e+00
1.2043026928e+00
1.2043055335e+00
1.2043079868e+00
1.2043100970e+00
1.2043119030e+00
1.2043134393e+00
1.2043147364e+00
1.2043158209e+00
1.2043167163e+00
1.2043174436e+00
1.2043180213e+00
1.2043184657e+00
1.2043187919e+00
1.2043190132e+00
1.2043191419e+00
1.2043191892e+00
1.2043191656e+00
1.2043190808e+00
1.2043189440e+00
1.2043187637e+00
1.2043185480e+00
1.2043183046e+00
1.2043180406e+00
1.2043177629e+00
1.2043174778e+00
1.2043171912e+00
1.2043169085e+00
1.2043166347e+00
1.2043163745e+00
1.2043161319e+00
1.2043159107e+00
1.2043157144e+00
1.2043155463e+00
1.2043154093e+00
1.2043153064e+00
1.2043152407e+00
1.2043152151e+00
1.2043152326e+00
1.2043152955e+00
1.2043154055e+00
1.2043150829e+00
1.2015881864e+00
1.2016012919e+00
1.2016170841e+00
1.2016406183e+00
1.2016717111e+00
1.2017101035e+00
1.2017554691e+00
1.2018074230e+00
1.2018655279e+00
1.2019293024e+00
1.2019982268e+00
1.2020717520e+00
1.2021493049e+00
1.2022302976e+00
1.2023141332e+00
1.2024002142e+00
1.2024879483e+00
1.2025767559e+00
1.2026660754e+00
1.2027553694e+00
1.2028441286e+00
1.2029318776e+00
1.2030181767e+00
1.2031026264e+00
1.2031848679e+00
1.2032645860e+00
1.2033415084e+00
1.2034154071e+00
1.2034860964e+00
1.2035534328e+00
1.2036173128e+00
1.2036776711e+00
1.2037344778e+00
1.2037877359e+00
1.2038374784e+00
1.2038837649e+00
1.2039266783e+00
1.2039663222e+00
1.2040028170e+00
1.2040362970e+00
1.2040669075e+00
1.2040948018e+00
1.2041201388e+00
1.2041430803e+00
1.2041637888e+00
1.2041824258e+00
1.2041991497e+00
1.2042141148e+00
1.2042274696e+00
1.2042393562e+00
1.2042499093e+00
1.2042592555e+00
1.2042675135e+00
1.2042747931e+00
1.2042811958e+00
1.2042868147e+00
1.2042917344e+00
1.2042960318e+00
1.2042997762e+00
1.2043030296e+00
1.2043058476e+00
1.2043082794e+00
1.2043103689e+00
1.2043121547e+00
1.2043136710e+00
1.2043149479e+00
1.2043160120e+00
1.2043168868e+00
1.2043175930e+00
1.2043181494e+00
1.2043185723e+00
1.2043188768e+00
1.2043190765e+00
1.2043191837e+00
1.2043192099e+00
1.2043191655e+00
1.2043190606e+00
1.2043189043e+00
1.2043187054e+00
1.2043184720e+00
1.2043182118e+00
1.2043179320e+00
1.2043176395e+00
1.2043173405e+00
1.2043170409e+00
1.2043167461e+00
1.2043164612e+00
1.2043161906e+00
1.2043159384e+00
1.2043157085e+00
1.2043155042e+00
1.2043153286e+00
1.2043151846e+00
1.2043150749e+00
1.2043150021e+00
1.2043149685e+00
1.2043149761e+00
1.2043150264e+00
1.2043151197e+00
1.2043146774e+00
1.2016194996e+00
1.2016326936e+00
1.2016483820e+00
1.2016717111e+00
1.2017024968e+00
1.2017404836e+00
1.2017853514e+00
1.2018367216e+00
1.2018941647e+00
1.2019572059e+00
1.2020253335e+00
1.2020980052e+00
1.2021746559e+00
1.2022547045e+00
1.2023375621e+00
1.2024226377e+00
1.2025093469e+00
1.2025971164e+00
1.2026853918e+00
1.2027736413e+00
1.2028613625e+00
1.2029480848e+00
1.2030333744e+00
1.2031168357e+00
1.2031981148e+00
1.2032768997e+00
1.2033529219e+00
1.2034259554e+00
1.2034958173e+00
1.2035623655e+00
1.2036254979e+00
1.2036851499e+00
1.2037412922e+00
1.2037939277e+00
1.2038430892e+00
1.2038888355e+00
1.2039312490e+00
1.2039704318e+00
1.2040065032e+00
1.2040395958e+00
1.2040698535e+00
1.2040974277e+00
1.2041224756e+00
1.2041451569e+00
1.2041656325e+00
1.2041840616e+00
1.2042006010e+00
1.2042154028e+00
1.2042286140e+00
1.2042403745e+00
1.2042508174e+00
1.2042600677e+00
1.2042682422e+00
1.2042754495e+00
1.2042817895e+00
1.2042873538e+00
1.2042922261e+00
1.2042964819e+00
1.2043001894e+00
1.2043034100e+00
1.2043061981e+00
1.2043086025e+00
1.2043106662e+00
1.2043124276e+00
1.2043139202e+00
1.2043151740e+00
1.2043162153e+00
1.2043170674e+00
1.2043177510e+00
1.2043182847e+00
1.2043186850e+00
1.2043189671e+00
1.2043191445e+00
1.2043192297e+00
1.2043192343e+00
1.2043191690e+00
1.2043190437e+00
1.2043188678e+00
1.2043186501e+00
1.2043183989e+00
1.2043181218e+00
1.2043178261e+00
1.2043175187e+00
1.2043172058e+00
1.2043168932e+00
1.2043165865e+00
1.2043162904e+00
1.2043160094e+00
1.2043157477e+00
1.2043155089e+00
1.2043152963e+00
1.2043151128e+00
1.2043149613e+00
1.2043148440e+00
1.2043147632e+00
1.2043147207e+00
1.2043147178e+00
1.2043147555e+00
1.2043148336e+00
1.2043142716e+00
1.2016583672e+00
1.2016715533e+00
1.2016870647e+00
1.2017101035e+00
1.2017404836e+00
1.2017779523e+00
1.2018221942e+00
1.2018728375e+00
1.2019294597e+00
1.2019915944e+00
1.2020587379e+00
1.2021303569e+00
1.2022058947e+00
1.2022847796e+00
1.2023664311e+00
1.2024502678e+00
1.2025357133e+00
1.2026222034e+00
1.2027091912e+00
1.2027961536e+00
1.2028825948e+00
1.2029680518e+00
1.2030520964e+00
1.2031343396e+00
1.2032144321e+00
1.2032920669e+00
1.2033669791e+00
1.2034389463e+00
1.2035077881e+00
1.2035733647e+00
1.2036355755e+00
1.2036943570e+00
1.2037496801e+00
1.2038015483e+00
1.2038499934e+00
1.2038950738e+00
1.2039368706e+00
1.2039754847e+00
1.2040110335e+00
1.2040436481e+00
1.2040734700e+00
1.2041006487e+00
1.2041253389e+00
1.2041476982e+00
1.2041678849e+00
1.2041860561e+00
1.2042023661e+00
1.2042169647e+00
1.2042299965e+00
1.2042415994e+00
1.2042519041e+00
1.2042610338e+00
1.2042691034e+00
1.2042762193e+00
1.2042824800e+00
1.2042879755e+00
1.2042927878e+00
1.2042969912e+00
1.2043006527e+00
1.2043038324e+00
1.2043065839e+00
1.2043089551e+00
1.2043109883e+00
1.2043127211e+00
1.2043141867e+00
1.2043154146e+00
1.2043164307e+00
1.2043172582e+00
1.2043179176e+00
1.2043184275e+00
1.2043188043e+00
1.2043190631e+00
1.2043192176e+00
1.2043192804e+00
1.2043192631e+00
1.2043191764e+00
1.2043190306e+00
1.2043188349e+00
1.2043185984e+00
1.2043183292e+00
1.2043180351e+00
1.2043177235e+00
1.2043174011e+00
1.2043170743e+00
1.2043167487e+00
1.2043164299e+00
1.2043161226e+00
1.2043158313e+00
1.2043155599e+00
1.2043153120e+00
1.2043150909e+00
1.2043148993e+00
1.2043147398e+00
1.2043146145e+00
1.2043145253e+00
1.2043144736e+00
1.2043144604e+00
1.2043144863e+00
1.2043145507e+00
1.2043138721e+00
1.2017044176e+00
1.2017175241e+00
1.2017327979e+00
1.2017554691e+00
1.2017853514e+00
1.2018221942e+00
1.2018656875e+00
1.2019154657e+00
1.2019711146e+00
1.2020321760e+00
1.2020981563e+00
1.2021685313e+00
1.2022427551e+00
1.2023202658e+00
1.2024004940e+00
1.2024828679e+00
1.2025668221e+00
1.2026518018e+00
1.2027372703e+00
1.2028227132e+00
1.2029076440e+00
1.2029916071e+00
1.2030741827e+00
1.2031549879e+00
1.2032336801e+00
1.2033099573e+00
1.2033835595e+00
1.2034542681e+00
1.2035219061e+00
1.2035863360e+00
1.2036474592e+00
1.2037052131e+00
1.2037595697e+00
1.2038105318e+00
1.2038581315e+00
1.2039024258e+00
1.2039434948e+00
1.2039814373e+00
1.2040163691e+00
1.2040484189e+00
1.2040777259e+00
1.2041044370e+00
1.2041287042e+00
1.2041506823e+00
1.2041705270e+00
1.2041883924e+00
1.2042044302e+00
1.2042187873e+00
1.2042316058e+00
1.2042430208e+00
1.2042531609e+00
1.2042621465e+00
1.2042700905e+00
1.2042770971e+00
1.2042832628e+00
1.2042886758e+00
1.2042934163e+00
1.2042975571e+00
1.2043011638e+00
1.2043042951e+00
1.2043070036e+00
1.2043093361e+00
1.2043113342e+00
1.2043130346e+00
1.2043144700e+00
1.2043156693e+00
1.2043166581e+00
1.2043174593e+00
1.2043180932e+00
1.2043185780e+00
1.2043189304e+00
1.2043191653e+00
1.2043192964e+00
1.2043193363e+00
1.2043192967e+00
1.2043191885e+00
1.2043190219e+00
1.2043188063e+00
1.2043185507e+00
1.2043182635e+00
1.2043179524e+00
1.2043176247e+00
1.2043172873e+00
1.2043169464e+00
1.2043166078e+00
1.2043162769e+00
1.2043159583e+00
1.2043156565e+00
1.2043153753e+00
1.2043151183e+00
1.2043148885e+00
1.2043146885e+00
1.2043145208e+00
1.2043143873e+00
1.2043142896e+00
1.2043142289e+00
1.2043142060e+00
1.2043142211e+00
1.2043142739e+00
1.2043134829e+00
1.2017572317e+00
1.2017702040e+00
1.2017851885e+00
1.2018074230e+00
1.2018367216e+00
1.2018728375e+00
1.2019154657e+00
1.2019642482e+00
1.2020187787e+00
1.2020786094e+00
1.2021432562e+00
1.2022122066e+00
1.2022849256e+00
1.2023608637e+00
1.2024394623e+00
1.2025201626e+00
1.2026024098e+00
1.2026856613e+00
1.2027693910e+00
1.2028530954e+00
1.2029362974e+00
1.2030185515e+00
1.2030994457e+00
1.2031786057e+00
1.2032556953e+00
1.2033304192e+00
1.2034025222e+00
1.2034717909e+00
1.2035380512e+00
1.2036011691e+00
1.2036610476e+00
1.2037176260e+00
1.2037708764e+00
1.2038208021e+00
1.2038674342e+00
1.2039108291e+00
1.2039510648e+00
1.2039882388e+00
1.2040224643e+00
1.2040538675e+00
1.2040825848e+00
1.2041087602e+00
1.2041325426e+00
1.2041540839e+00
1.2041735362e+00
1.2041910508e+00
1.2042067758e+00
1.2042208555e+00
1.2042334285e+00
1.2042446274e+00
1.2042545776e+00
1.2042633971e+00
1.2042711960e+00
1.2042780764e+00
1.2042841323e+00
1.2042894499e+00
1.2042941075e+00
1.2042981761e+00
1.2043017197e+00
1.2043047956e+00
1.2043074552e+00
1.2043097440e+00
1.2043117027e+00
1.2043133672e+00
1.2043147695e+00
1.2043159378e+00
1.2043168974e+00
1.2043176706e+00
1.2043182776e+00
1.2043187365e+00
1.2043190636e+00
1.2043192739e+00
1.2043193811e+00
1.2043193978e+00
1.2043193357e+00
1.2043192058e+00
1.2043190182e+00
1.2043187826e+00
1.2043185079e+00
1.2043182024e+00
1.2043178742e+00
1.2043175304e+00
1.2043171779e+00
1.2043168229e+00
1.2043164711e+00
1.2043161279e+00
1.2043157980e+00
1.2043154856e+00
1.2043151945e+00
1.2043149282e+00
1.2043146895e+00
1.2043144811e+00
1.2043143051e+00
1.2043141634e+00
1.2043140573e+00
1.2043139880e+00
1.2043139560e+00
1.2043139616e+00
1.2043140044e+00
1.2043131063e+00
1.2018163471e+00
1.2018291418e+00
1.2018437924e+00
1.2018655279e+00
1.2018941647e+00
1.2019294597e+00
1.2019711146e+00
1.2020187787e+00
1.2020720557e+00
1.2021305075e+00
1.2021936621e+00
1.2022610185e+00
1.2023320548e+00
1.2024062339e+00
1.2024830111e+00
1.2025618399e+00
1.2026421793e+00
1.2027234987e+00
1.2028052850e+00
1.2028870457e+00
1.2029683157e+00
1.2030486592e+00
1.2031276744e+00
1.2032049951e+00
1.2032802937e+00
1.2033532811e+00
1.2034237088e+00
1.2034913676e+00
1.2035560884e+00
1.2036177396e+00
1.2036762272e+00
1.2037314914e+00
1.2037835056e+00
1.2038322726e+00
1.2038778234e+00
1.2039202127e+00
1.2039595172e+00
1.2039958319e+00
1.2040292677e+00
1.2040599478e+00
1.2040880057e+00
1.2041135819e+00
1.2041368220e+00
1.2041578742e+00
1.2041768873e+00
1.2041940088e+00
1.2042093835e+00
1.2042231521e+00
1.2042354498e+00
1.2042464060e+00
1.2042561430e+00
1.2042647758e+00
1.2042724116e+00
1.2042791499e+00
1.2042850822e+00
1.2042902925e+00
1.2042948568e+00
1.2042988444e+00
1.2043023173e+00
1.2043053314e+00
1.2043079365e+00
1.2043101770e+00
1.2043120924e+00
1.2043137178e+00
1.2043150842e+00
1.2043162194e+00
1.2043171479e+00
1.2043178918e+00
1.2043184708e+00
1.2043189029e+00
1.2043192041e+00
1.2043193893e+00
1.2043194722e+00
1.2043194654e+00
1.2043193806e+00
1.2043192288e+00
1.2043190201e+00
1.2043187644e+00
1.2043184704e+00
1.2043181468e+00
1.2043178013e+00
1.2043174413e+00
1.2043170735e+00
1.2043167043e+00
1.2043163393e+00
1.2043159837e+00
1.2043156423e+00
1.2043153192e+00
1.2043150181e+00
1.2043147423e+00
1.2043144947e+00
1.2043142778e+00
1.2043140935e+00
1.2043139436e+00
1.2043138294e+00
1.2043137518e+00
1.2043137115e+00
1.2043137087e+00
1.2043137432e+00
1.2043127428e+00
1.2018812614e+00
1.2018938436e+00
1.2019081213e+00
1.2019293024e+00
1.2019572059e+00
1.2019915944e+00
1.2020321760e+00
1.2020786094e+00
1.2021305075e+00
1.2021874444e+00
1.2022489596e+00
1.2023145661e+00
1.2023837549e+00
1.2024560038e+00
1.2025307817e+00
1.2026075573e+00
1.2026858029e+00
1.2027650028e+00
1.2028446563e+00
1.2029242849e+00
1.2030034348e+00
1.2030816824e+00
1.2031586357e+00
1.2032339389e+00
1.2033072721e+00
1.2033783547e+00
1.2034469440e+00
1.2035128371e+00
1.2035758685e+00
1.2036359110e+00
1.2036928723e+00
1.2037466950e+00
1.2037973527e+00
1.2038448488e+00
1.2038892130e+00
1.2039304991e+00
1.2039687818e+00
1.2040041538e+00
1.2040367230e+00
1.2040666096e+00
1.2040939436e+00
1.2041188621e+00
1.2041415068e+00
1.2041620220e+00
1.2041805526e+00
1.2041972423e+00
1.2042122318e+00
1.2042256583e+00
1.2042376532e+00
1.2042483424e+00
1.2042578446e+00
1.2042662716e+00
1.2042737278e+00
1.2042803095e+00
1.2042861056e+00
1.2042911976e+00
1.2042956593e+00
1.2042995577e+00
1.2043029530e+00
1.2043058993e+00
1.2043084450e+00
1.2043106330e+00
1.2043125017e+00
1.2043140850e+00
1.2043154132e+00
1.2043165133e+00
1.2043174093e+00
1.2043181226e+00
1.2043186727e+00
1.2043190772e+00
1.2043193520e+00
1.2043195117e+00
1.2043195701e+00
1.2043195396e+00
1.2043194319e+00
1.2043192581e+00
1.2043190283e+00
1.2043187523e+00
1.2043184391e+00
1.2043180972e+00
1.2043177344e+00
1.2043173580e+00
1.2043169750e+00
1.2043165914e+00
1.2043162131e+00
1.2043158450e+00
1.2043154919e+00
1.2043151579e+00
1.2043148467e+00
1.2043145614e+00
1.2043143048e+00
1.2043140792e+00
1.2043138867e+00
1.2043137287e+00
1.2043136066e+00
1.2043135213e+00
1.2043134734e+00
1.2043134631e+00
1.2043134905e+00
1.2043123923e+00
1.2019514380e+00
1.2019637786e+00
1.2019776498e+00
1.2019982268e+00
1.2020253335e+00
1.2020587379e+00
1.2020981563e+00
1.2021432562e+00
1.2021936621e+00
1.2022489596e+00
1.2023087023e+00
1.2023724163e+00
1.2024396084e+00
1.2025097707e+00
1.2025823884e+00
1.2026569446e+00
1.2027329282e+00
1.2028098373e+00
1.2028871869e+00
1.2029645113e+00
1.2030413709e+00
1.2031173535e+00
1.2031920794e+00
1.2032652023e+00
1.2033364125e+00
1.2034054367e+00
1.2034720401e+00
1.2035360249e+00
1.2035972315e+00
1.2036555355e+00
1.2037108482e+00
1.2037631131e+00
1.2038123055e+00
1.2038584282e+00
1.2039015106e+00
1.2039416047e+00
1.2039787834e+00
1.2040131366e+00
1.2040447694e+00
1.2040737986e+00
1.2041003504e+00
1.2041245579e+00
1.2041465589e+00
1.2041664934e+00
1.2041845023e+00
1.2042007248e+00
1.2042152978e+00
1.2042283540e+00
1.2042400212e+00
1.2042504211e+00
1.2042596690e+00
1.2042678732e+00
1.2042751346e+00
1.2042815466e+00
1.2042871952e+00
1.2042921590e+00
1.2042965095e+00
1.2043003114e+00
1.2043036229e+00
1.2043064962e+00
1.2043089779e+00
1.2043111097e+00
1.2043129285e+00
1.2043144673e+00
1.2043157553e+00
1.2043168187e+00
1.2043176808e+00
1.2043183626e+00
1.2043188830e+00
1.2043192593e+00
1.2043195073e+00
1.2043196413e+00
1.2043196749e+00
1.2043196206e+00
1.2043194900e+00
1.2043192941e+00
1.2043190433e+00
1.2043187471e+00
1.2043184146e+00
1.2043180543e+00
1.2043176741e+00
1.2043172815e+00
1.2043168830e+00
1.2043164850e+00
1.2043160931e+00
1.2043157125e+00
1.2043153476e+00
1.2043150026e+00
1.2043146811e+00
1.2043143861e+00
1.2043141203e+00
1.2043138861e+00
1.2043136853e+00
1.2043135194e+00
1.2043133897e+00
1.2043132970e+00
1.2043132420e+00
1.2043132250e+00
1.2043132461e+00
1.2043120543e+00
1.2020263119e+00
1.2020383871e+00
1.2020518220e+00
1.2020717520e+00
1.2020980052e+00
1.2021303569e+00
1.2021685313e+00
1.2022122066e+00
1.2022610185e+00
1.2023145661e+00
1.2023724163e+00
1.2024341112e+00
1.2024991724e+00
1.2025671090e+00
1.2026374217e+00
1.2027096111e+00
1.2027831812e+00
1.2028576474e+00
1.2029325390e+00
1.2030074063e+00
1.2030818226e+00
1.2031553899e+00
1.2032277397e+00
1.2032985377e+00
1.2033674831e+00
1.2034343123e+00
1.2034987973e+00
1.2035607475e+00
1.2036200074e+00
1.2036764576e+00
1.2037300116e+00
1.2037806156e+00
1.2038282449e+00
1.2038729031e+00
1.2039146182e+00
1.2039534412e+00
1.2039894422e+00
1.2040227090e+00
1.2040533429e+00
1.2040814574e+00
1.2041071747e+00
1.2041306238e+00
1.2041519379e+00
1.2041712530e+00
1.2041887049e+00
1.2042044289e+00
1.2042185571e+00
1.2042312180e+00
1.2042425350e+00
1.2042526260e+00
1.2042616022e+00
1.2042695682e+00
1.2042766215e+00
1.2042828521e+00
1.2042883429e+00
1.2042931698e+00
1.2042974016e+00
1.2043011006e+00
1.2043043227e+00
1.2043071184e+00
1.2043095324e+00
1.2043116047e+00
1.2043133711e+00
1.2043148632e+00
1.2043161092e+00
1.2043171345e+00
1.2043179617e+00
1.2043186112e+00
1.2043191014e+00
1.2043194491e+00
1.2043196700e+00
1.2043197782e+00