# vtk DataFile Version 2.0
Blank
ASCII
DATASET STRUCTURED_GRID
DIMENSIONS 101 101 2
POINTS 20402 float
0.0000000000e+00 0.0000000000e+00 0.0000000000e+00
1.0000000000e-02 0.0000000000e+00 0.0000000000e+00
2.0000000000e-02 0.0000000000e+00 0.0000000000e+00
3.0000000000e-02 0.0000000000e+00 0.0000000000e+00
4.0000000000e-02 0.0000000000e+00 0.0000000000e+00
5.0000000000e-02 0.0000000000e+00 0.0000000000e+00
6.0000000000e-02 0.0000000000e+00 0.0000000000e+00
7.0000000000e-02 0.0000000000e+00 0.0000000000e+00
8.0000000000e-02 0.0000000000e+00 0.0000000000e+00
9.0000000000e-02 0.0000000000e+00 0.0000000000e+00
1.0000000000e-01 0.0000000000e+00 0.0000000000e+00
1.1000000000e-01 0.0000000000e+00 0.0000000000e+00
1.2000000000e-01 0.0000000000e+00 0.0000000000e+00
1.3000000000e-01 0.0000000000e+00 0.0000000000e+00
1.4000000000e-01 0.0000000000e+00 0.0000000000e+00
1.5000000000e-01 0.0000000000e+00 0.0000000000e+00
1.6000000000e-01 0.0000000000e+00 0.0000000000e+00
1.7000000000e-01 0.0000000000e+00 0.0000000000e+00
1.8000000000e-01 0.0000000000e+00 0.0000000000e+00
1.9000000000e-01 0.0000000000e+00 0.0000000000e+00
2.0000000000e-01 0.0000000000e+00 0.0000000000e+00
2.1000000000e-01 0.0000000000e+00 0.0000000000e+00
2.2000000000e-01 0.0000000000e+00 0.0000000000e+00
2.3000000000e-01 0.0000000000e+00 0.0000000000e+00
2.4000000000e-01 0.0000000000e+00 0.0000000000e+00
2.5000000000e-01 0.0000000000e+00 0.0000000000e+00
2.6000000000e-01 0.0000000000e+00 0.0000000000e+00
2.7000000000e-01 0.0000000000e+00 0.0000000000e+00
2.8000000000e-01 0.0000000000e+00 0.0000000000e+00
2.9000000000e-01 0.0000000000e+00 0.0000000000e+00
3.0000000000e-01 0.0000000000e+00 0.0000000000e+00
3.1000000000e-01 0.0000000000e+00 0.0000000000e+00
3.2000000000e-01 0.0000000000e+00 0.0000000000e+00
3.3000000000e-01 0.0000000000e+00 0.0000000000e+00
3.4000000000e-01 0.0000000000e+00 0.0000000000e+00
3.5000000000e-01 0.0000000000e+00 0.0000000000e+00
3.6000000000e-01 0.0000000000e+00 0.0000000000e+00
3.7000000000e-01 0.0000000000e+00 0.0000000000e+00
3.8000000000e-01 0.0000000000e+00 0.0000000000e+00
3.9000000000e-01 0.0000000000e+00 0.0000000000e+00
4.0000000000e-01 0.0000000000e+00 0.0000000000e+00
4.1000000000e-01 0.0000000000e+00 0.0000000000e+00
4.2000000000e-01 0.0000000000e+00 0.0000000000e+00
4.3000000000e-01 0.0000000000e+00 0.0000000000e+00
4.4000000000e-01 0.0000000000e+00 0.0000000000e+00
4.5000000000e-01 0.0000000000e+00 0.0000000000e+00
4.6000000000e-01 0.0000000000e+00 0.0000000000e+00
4.7000000000e-01 0.0000000000e+00 0.0000000000e+00
4.8000000000e-01 0.0000000000e+00 0.0000000000e+00
4.9000000000e-01 0.0000000000e+00 0.0000000000e+00
5.0000000000e-01 0.0000000000e+00 0.0000000000e+00
5.1000000000e-01 0.0000000000e+00 0.0000000000e+00
5.2000000000e-01 0.0000000000e+00 0.0000000000e+00
5.3000000000e-01 0.0000000000e+00 0.0000000000e+00
5.4000000000e-01 0.0000000000e+00 0.0000000000e+00
5.5000000000e-01 0.0000000000e+00 0.0000000000e+00
5.6000000000e-01 0.0000000000e+00 0.0000000000e+00
5.7000000000e-01 0.0000000000e+00 0.0000000000e+00
5.8000000000e-01 0.0000000000e+00 0.0000000000e+00
5.9000000000e-01 0.0000000000e+00 0.0000000000e+00
6.0000000000e-01 0.0000000000e+00 0.0000000000e+00
6.1000000000e-01 0.0000000000e+00 0.0000000000e+00
6.2000000000e-01 0.0000000000e+00 0.0000000000e+00
6.3000000000e-01 0.0000000000e+00 0.0000000000e+00
6.4000000000e-01 0.0000000000e+00 0.0000000000e+00
6.5000000000e-01 0.0000000000e+00 0.0000000000e+00
6.6000000000e-01 0.0000000000e+00 0.0000000000e+00
6.7000000000e-01 0.0000000000e+00 0.0000000000e+00
6.8000000000e-01 0.0000000000e+00 0.0000000000e+00
6.9000000000e-01 0.0000000000e+00 0.0000000000e+00
7.0000000000e-01 0.0000000000e+00 0.0000000000e+00
7.1000000000e-01 0.0000000000e+00 0.0000000000e+00
7.2000000000e-01 0.0000000000e+00 0.0000000000e+00
7.3000000000e-01 0.0000000000e+00 0.0000000000e+00
7.4000000000e-01 0.0000000000e+00 0.0000000000e+00
7.5000000000e-01 0.0000000000e+00 0.0000000000e+00
7.6000000000e-01 0.0000000000e+00 0.0000000000e+00
7.7000000000e-01 0.0000000000e+00 0.0000000000e+00
7.8000000000e-01 0.0000000000e+00 0.0000000000e+00
7.9000000000e-01 0.0000000000e+00 0.0000000000e+00
8.0000000000e-01 0.0000000000e+00 0.0000000000e+00
8.1000000000e-01 0.0000000000e+00 0.0000000000e+00
8.2000000000e-01 0.0000000000e+00 0.0000000000e+00
8.3000000000e-01 0.0000000000e+00 0.0000000000e+00
8.4000000000e-01 0.0000000000e+00 0.0000000000e+00
8.5000000000e-01 0.0000000000e+00 0.0000000000e+00
8.6000000000e-01 0.0000000000e+00 0.0000000000e+00
8.7000000000e-01 0.0000000000e+00 0.0000000000e+00
8.8000000000e-01 0.0000000000e+00 0.0000000000e+00
8.9000000000e-01 0.0000000000e+00 0.0000000000e+00
9.0000000000e-01 0.0000000000e+00 0.0000000000e+00
9.1000000000e-01 0.0000000000e+00 0.0000000000e+00
9.2000000000e-01 0.0000000000e+00 0.0000000000e+00
9.3000000000e-01 0.0000000000e+00 0.0000000000e+00
9.4000000000e-01 0.0000000000e+00 0.0000000000e+00
9.5000000000e-01 0.0000000000e+00 0.0000000000e+00
9.6000000000e-01 0.0000000000e+00 0.0000000000e+00
9.7000000000e-01 0.0000000000e+00 0.0000000000e+00
9.8000000000e-01 0.0000000000e+00 0.0000000000e+00
9.9000000000e-01 0.0000000000e+00 0.0000000000e+00
1.0000000000e+00 0.0000000000e+00 0.0000000000e+00
0.0000000000e+00 1.0000000000e-02 0.0000000000e+00
1.0000000000e-02 1.0000000000e-02 0.0000000000e+00
2.0000000000e-02 1.0000000000e-02 0.0000000000e+00
3.0000000000e-02 1.0000000000e-02 0.0000000000e+00
4.0000000000e-02 1.0000000000e-02 0.0000000000e+00
5.0000000000e-02 1.0000000000e-02 0.0000000000e+00
6.0000000000e-02 1.0000000000e-02 0.0000000000e+00
7.0000000000e-02 1.0000000000e-02 0.0000000000e+00
8.0000000000e-02 1.0000000000e-02 0.0000000000e+00
9.0000000000e-02 1.0000000000e-02 0.0000000000e+00
1.0000000000e-01 1.0000000000e-02 0.0000000000e+00
1.1000000000e-01 1.0000000000e-02 0.0000000000e+00
1.2000000000e-01 1.0000000000e-02 0.0000000000e+00
1.3000000000e-01 1.0000000000e-02 0.0000000000e+00
1.4000000000e-01 1.0000000000e-02 0.0000000000e+00
1.5000000000e-01 1.0000000000e-02 0.0000000000e+00
1.6000000000e-01 1.0000000000e-02 0.0000000000e+00
1.7000000000e-01 1.0000000000e-02 0.0000000000e+00
1.8000000000e-01 1.0000000000e-02 0.0000000000e+00
1.9000000000e-01 1.0000000000e-02 0.0000000000e+00
2.0000000000e-01 1.0000000000e-02 0.0000000000e+00
2.1000000000e-01 1.0000000000e-02 0.0000000000e+00
2.2000000000e-01 1.0000000000e-02 0.0000000000e+00
2.3000000000e-01 1.0000000000e-02 0.0000000000e+00
2.4000000000e-01 1.0000000000e-02 0.0000000000e+00
2.5000000000e-01 1.0000000000e-02 0.0000000000e+00
2.6000000000e-01 1.0000000000e-02 0.0000000000e+00
2.7000000000e-01 1.0000000000e-02 0.0000000000e+00
2.8000000000e-01 1.0000000000e-02 0.0000000000e+00
2.9000000000e-01 1.0000000000e-02 0.0000000000e+00
3.0000000000e-01 1.0000000000e-02 0.0000000000e+00
3.1000000000e-01 1.0000000000e-02 0.0000000000e+00
3.2000000000e-01 1.0000000000e-02 0.0000000000e+00
3.3000000000e-01 1.0000000000e-02 0.0000000000e+00
3.4000000000e-01 1.0000000000e-02 0.0000000000e+00
3.5000000000e-01 1.0000000000e-02 0.0000000000e+00
3.6000000000e-01 1.0000000000e-02 0.0000000000e+00
3.7000000000e-01 1.0000000000e-02 0.0000000000e+00
3.8000000000e-01 1.0000000000e-02 0.0000000000e+00
3.9000000000e-01 1.0000000000e-02 0.0000000000e+00
4.0000000000e-01 1.0000000000e-02 0.0000000000e+00
4.1000000000e-01 1.0000000000e-02 0.0000000000e+00
4.2000000000e-01 1.0000000000e-02 0.0000000000e+00
4.3000000000e-01 1.0000000000e-02 0.0000000000e+00
4.4000000000e-01 1.0000000000e-02 0.0000000000e+00
4.5000000000e-01 1.0000000000e-02 0.0000000000e+00
4.6000000000e-01 1.0000000000e-02 0.0000000000e+00
4.7000000000e-01 1.0000000000e-02 0.0000000000e+00
4.8000000000e-01 1.0000000000e-02 0.0000000000e+00
4.9000000000e-01 1.0000000000e-02 0.0000000000e+00
5.0000000000e-01 1.0000000000e-02 0.0000000000e+00
5.1000000000e-01 1.0000000000e-02 0.0000000000e+00
5.2000000000e-01 1.0000000000e-02 0.0000000000e+00
5.3000000000e-01 1.0000000000e-02 0.0000000000e+00
5.4000000000e-01 1.0000000000e-02 0.0000000000e+00
5.5000000000e-01 1.0000000000e-02 0.0000000000e+00
5.6000000000e-01 1.0000000000e-02 0.0000000000e+00
5.7000000000e-01 1.0000000000e-02 0.0000000000e+00
5.8000000000e-01 1.0000000000e-02 0.0000000000e+00
5.9000000000e-01 1.0000000000e-02 0.0000000000e+00
6.0000000000e-01 1.0000000000e-02 0.0000000000e+00
6.1000000000e-01 1.0000000000e-02 0.0000000000e+00
6.2000000000e-01 1.0000000000e-02 0.0000000000e+00
6.3000000000e-01 1.0000000000e-02 0.0000000000e+00
6.4000000000e-01 1.0000000000e-02 0.0000000000e+00
6.5000000000e-01 1.0000000000e-02 0.0000000000e+00
6.6000000000e-01 1.0000000000e-02 0.0000000000e+00
6.7000000000e-01 1.0000000000e-02 0.0000000000e+00
6.8000000000e-01 1.0000000000e-02 0.0000000000e+00
6.9000000000e-01 1.0000000000e-02 0.0000000000e+00
7.0000000000e-01 1.0000000000e-02 0.0000000000e+00
7.1000000000e-01 1.0000000000e-02 0.0000000000e+00
7.2000000000e-01 1.0000000000e-02 0.0000000000e+00
7.3000000000e-01 1.0000000000e-02 0.0000000000e+00
7.4000000000e-01 1.0000000000e-02 0.0000000000e+00
7.5000000000e-01 1.0000000000e-02 0.0000000000e+00
7.6000000000e-01 1.0000000000e-02 0.0000000000e+00
7.7000000000e-01 1.0000000000e-02 0.0000000000e+00
7.8000000000e-01 1.0000000000e-02 0.0000000000e+00
7.9000000000e-01 1.0000000000e-02 0.0000000000e+00
8.0000000000e-01 1.0000000000e-02 0.0000000000e+00
8.1000000000e-01 1.0000000000e-02 0.0000000000e+00
8.2000000000e-01 1.0000000000e-02 0.0000000000e+00
8.3000000000e-01 1.0000000000e-02 0.0000000000e+00
8.4000000000e-01 1.0000000000e-02 0.0000000000e+00
8.5000000000e-01 1.0000000000e-02 0.0000000000e+00
8.6000000000e-01 1.0000000000e-02 0.0000000000e+00
8.7000000000e-01 1.0000000000e-02 0.0000000000e+00
8.8000000000e-01 1.0000000000e-02 0.0000000000e+00
8.9000000000e-01 1.0000000000e-02 0.0000000000e+00
9.0000000000e-01 1.0000000000e-02 0.0000000000e+00
9.1000000000e-01 1.0000000000e-02 0.0000000000e+00
9.2000000000e-01 1.0000000000e-02 0.0000000000e+00
[...]
CELL_DATA 10000

SCALARS massDensity float
LOOKUP_TABLE default
1.1987923673e+00
1.1988334156e+00
1.1988943390e+00
1.1989860589e+00
1.1991068504e+00
1.1992545607e+00
1.1994266686e+00
1.1996203524e+00
1.1998325521e+00
1.2000600488e+00
1.2002995352e+00
1.2005476981e+00
1.2008012854e+00
1.2010571798e+00
1.2013124520e+00
1.2015644167e+00
1.2018106655e+00
1.2020491002e+00
1.2022779432e+00
1.2024957483e+00
1.2027013904e+00
1.2028940572e+00
1.2030732232e+00
1.2032386287e+00
1.2033902442e+00
1.2035282439e+00
1.2036529675e+00
1.2037648932e+00
1.2038646030e+00
1.2039527596e+00
1.2040300776e+00
1.2040973071e+00
1.2041552119e+00
1.2042045591e+00
1.2042461044e+00
1.2042805861e+00
1.2043087159e+00
1.2043311768e+00
1.2043486161e+00
1.2043616460e+00
1.2043708389e+00
1.2043767285e+00
1.2043798068e+00
1.2043805256e+00
1.2043792946e+00
1.2043764837e+00
1.2043724220e+00
1.2043674004e+00
1.2043616721e+00
1.2043554557e+00
1.2043489362e+00
1.2043422688e+00
1.2043355805e+00
1.2043289741e+00
1.2043225299e+00
1.2043163094e+00
1.2043103575e+00
1.2043047053e+00
1.2042993724e+00
1.2042943691e+00
1.2042896978e+00
1.2042853554e+00
1.2042813340e+00
1.2042776225e+00
1.2042742073e+00
1.2042710735e+00
1.2042682049e+00
1.2042655851e+00
1.2042631975e+00
1.2042610258e+00
1.2042590542e+00
1.2042572672e+00
1.2042556503e+00
1.2042541894e+00
1.2042528715e+00
1.2042516839e+00
1.2042506150e+00
1.2042496536e+00
1.2042487897e+00
1.2042480135e+00
1.2042473162e+00
1.2042466901e+00
1.2042461282e+00
1.2042456250e+00
1.2042451768e+00
1.2042447813e+00
1.2042444395e+00
1.2042441550e+00
1.2042439354e+00
1.2042437931e+00
1.2042437466e+00
1.2042438214e+00
1.2042440531e+00
1.2042444895e+00
1.2042451958e+00
1.2042462597e+00
1.2042477995e+00
1.2042499682e+00
1.2042529436e+00
1.2042411488e+00
1.1988334156e+00
1.1988765895e+00
1.1989383464e+00
1.1990302931e+00
1.1991508656e+00
1.1992980171e+00
1.1994693042e+00
1.1996619531e+00
1.1998729447e+00
1.2000990833e+00
1.2003370863e+00
1.2005836519e+00
1.2008355433e+00
1.2010896465e+00
1.2013430405e+00
1.2015930371e+00
1.2018372302e+00
1.2020735144e+00
1.2023001113e+00
1.2025155662e+00
1.2027187532e+00
1.2029088545e+00
1.2030853484e+00
1.2032479767e+00
1.2033967230e+00
1.2035317737e+00
1.2036534927e+00
1.2037623832e+00
1.2038590629e+00
1.2039442301e+00
1.2040186440e+00
1.2040830966e+00
1.2041383991e+00
1.2041853603e+00
1.2042247788e+00
1.2042574274e+00
1.2042840496e+00
1.2043053489e+00
1.2043219884e+00
1.2043345840e+00
1.2043437061e+00
1.2043498750e+00
1.2043535643e+00
1.2043551983e+00
1.2043551565e+00
1.2043537722e+00
1.2043513378e+00
1.2043481045e+00
1.2043442879e+00
1.2043400688e+00
1.2043355984e+00
1.2043309998e+00
1.2043263727e+00
1.2043217953e+00
1.2043173283e+00
1.2043130168e+00
1.2043088933e+00
1.2043049797e+00
1.2043012896e+00
1.2042978295e+00
1.2042946007e+00
1.2042916003e+00
1.2042888226e+00
1.2042862593e+00
1.2042839009e+00
1.2042817365e+00
1.2042797550e+00
1.2042779448e+00
1.2042762946e+00
1.2042747929e+00
1.2042734287e+00
1.2042721915e+00
1.2042710712e+00
1.2042700582e+00
1.2042691434e+00
1.2042683184e+00
1.2042675750e+00
1.2042669059e+00
1.2042663040e+00
1.2042657632e+00
1.2042652775e+00
1.2042648421e+00
1.2042644524e+00
1.2042641054e+00
1.2042637986e+00
1.2042635313e+00
1.2042633043e+00
1.2042631204e+00
1.2042629846e+00
1.2042629050e+00
1.2042628928e+00
1.2042629634e+00
1.2042631363e+00
1.2042634366e+00
1.2042638947e+00
1.2042645464e+00
1.2042654288e+00
1.2042665709e+00
1.2042679645e+00
1.2042531650e+00
1.1988943390e+00
1.1989383464e+00
1.1989998905e+00
1.1990911217e+00
1.1992105427e+00
1.1993561749e+00
1.1995256271e+00
1.1997161818e+00
1.1999248626e+00
1.2001485254e+00
1.2003839257e+00
1.2006278099e+00
1.2008769753e+00
1.2011283511e+00
1.2013790440e+00
1.2016264012e+00
1.2018680362e+00
1.2021018688e+00
1.2023261301e+00
1.2025393800e+00
1.2027404922e+00
1.2029286532e+00
1.2031033330e+00
1.2032642700e+00
1.2034114337e+00
1.2035450032e+00
1.2036653270e+00
1.2037728999e+00
1.2038683263e+00
1.2039522991e+00
1.2040255683e+00
1.2040889251e+00
1.2041431770e+00
1.2041891365e+00
1.2042276033e+00
1.2042593571e+00
1.2042851450e+00
1.2043056788e+00
1.2043216253e+00
1.2043336072e+00
1.2043421966e+00
1.2043479174e+00
1.2043512419e+00
1.2043525939e+00
1.2043523479e+00
1.2043508335e+00
1.2043483353e+00
1.2043450981e+00
1.2043413284e+00
1.2043371995e+00
1.2043328536e+00
1.2043284063e+00
1.2043239495e+00
1.2043195551e+00
1.2043152776e+00
1.2043111576e+00
1.2043072231e+00
1.2043034933e+00
1.2042999789e+00
1.2042966850e+00
1.2042936117e+00
1.2042907557e+00
1.2042881108e+00
1.2042856689e+00
1.2042834207e+00
1.2042813561e+00
1.2042794644e+00
1.2042777346e+00
1.2042761561e+00
1.2042747181e+00
1.2042734104e+00
1.2042722229e+00
1.2042711463e+00
1.2042701715e+00
1.2042692900e+00
1.2042684938e+00
1.2042677755e+00
1.2042671280e+00
1.2042665451e+00
1.2042660208e+00
1.2042655500e+00
1.2042651280e+00
1.2042647513e+00
1.2042644166e+00
1.2042641224e+00
1.2042638678e+00
1.2042636537e+00
1.2042634821e+00
1.2042633575e+00
1.2042632859e+00
1.2042632760e+00
1.2042633384e+00
1.2042634864e+00
1.2042637347e+00
1.2042640987e+00
1.2042645905e+00
1.2042652136e+00
1.2042659476e+00
1.2042667225e+00
1.2042504067e+00
1.1989860589e+00
1.1990302931e+00
1.1990911217e+00
1.1991810564e+00
1.1992986392e+00
1.1994419372e+00
1.1996086216e+00
1.1997960289e+00
1.2000012508e+00
1.2002211985e+00
1.2004526966e+00
1.2006925446e+00
1.2009376056e+00
1.2011848563e+00
1.2014314610e+00
1.2016748049e+00
1.2019125470e+00
1.2021426327e+00
1.2023633245e+00
1.2025731940e+00
1.2027711318e+00
1.2029563233e+00
1.2031282426e+00
1.2032866170e+00
1.2034314108e+00
1.2035627859e+00
1.2036810804e+00
1.2037867706e+00
1.2038804500e+00
1.2039627949e+00
1.2040345473e+00
1.2040964864e+00
1.2041494160e+00
1.2041941421e+00
1.2042314649e+00
1.2042621618e+00
1.2042869832e+00
1.2043066406e+00
1.2043218048e+00
1.2043330982e+00
1.2043410951e+00
1.2043463172e+00
1.2043492361e+00
1.2043502709e+00
1.2043497921e+00
1.2043481218e+00
1.2043455382e+00
1.2043422770e+00
1.2043385369e+00
1.2043344817e+00
1.2043302455e+00
1.2043259354e+00
1.2043216361e+00
1.2043174123e+00
1.2043133132e+00
1.2043093737e+00
1.2043056185e+00
1.2043020629e+00
1.2042987158e+00
1.2042955802e+00
1.2042926553e+00
1.2042899369e+00
1.2042874188e+00
1.2042850928e+00
1.2042829501e+00
1.2042809807e+00
1.2042791748e+00
1.2042775220e+00
1.2042760121e+00
1.2042746351e+00
1.2042733814e+00
1.2042722417e+00
1.2042712070e+00
1.2042702690e+00
1.2042694195e+00
1.2042686512e+00
1.2042679570e+00
1.2042673305e+00
1.2042667657e+00
1.2042662573e+00
1.2042658004e+00
1.2042653909e+00
1.2042650254e+00
1.2042647012e+00
1.2042644164e+00
1.2042641706e+00
1.2042639638e+00
1.2042637980e+00
1.2042636759e+00
1.2042636019e+00
1.2042635816e+00
1.2042636219e+00
1.2042637297e+00
1.2042639120e+00
1.2042641727e+00
1.2042645100e+00
1.2042649092e+00
1.2042653333e+00
1.2042657051e+00
1.2042484221e+00
1.1991068504e+00
1.1991508656e+00
1.1992105427e+00
1.1992986392e+00
1.1994137201e+00
1.1995539064e+00
1.1997169240e+00
1.1999001855e+00
1.2001008492e+00
1.2003159115e+00
1.2005422670e+00
1.2007768014e+00
1.2010164443e+00
1.2012582525e+00
1.2014994479e+00
1.2017374833e+00
1.2019700617e+00
1.2021951798e+00
1.2024111273e+00
1.2026165088e+00
1.2028102254e+00
1.2029914780e+00
1.2031597361e+00
1.2033147279e+00
1.2034564025e+00
1.2035849124e+00
1.2037005746e+00
1.2038038515e+00
1.2038953141e+00
1.2039756248e+00
1.2040455060e+00
1.2041057263e+00
1.2041570746e+00
1.2042003509e+00
1.2042363457e+00
1.2042658342e+00
1.2042895615e+00
1.2043082389e+00
1.2043225336e+00
1.2043330680e+00
1.2043404128e+00
1.2043450880e+00
1.2043475598e+00
1.2043482432e+00
1.2043475013e+00
1.2043456496e+00
1.2043429572e+00
1.2043396519e+00
1.2043359224e+00
1.2043319241e+00
1.2043277816e+00
1.2043235942e+00
1.2043194383e+00
1.2043153726e+00
1.2043114395e+00
1.2043076697e+00
1.2043040832e+00
1.2043006925e+00
1.2042975037e+00
1.2042945184e+00
1.2042917342e+00
1.2042891467e+00
1.2042867490e+00
1.2042845334e+00
1.2042824910e+00
1.2042806125e+00
1.2042788883e+00
1.2042773088e+00
1.2042758644e+00
1.2042745457e+00
1.2042733436e+00
1.2042722495e+00
1.2042712549e+00
1.2042703520e+00
1.2042695332e+00
1.2042687916e+00
1.2042681206e+00
1.2042675141e+00
1.2042669667e+00
1.2042664732e+00
1.2042660292e+00
1.2042656309e+00
1.2042652750e+00
1.2042649589e+00
1.2042646811e+00
1.2042644403e+00
1.2042642368e+00
1.2042640711e+00
1.2042639451e+00
1.2042638612e+00
1.2042638227e+00
1.2042638325e+00
1.2042638936e+00
1.2042640066e+00
1.2042641690e+00
1.2042643708e+00
1.2042645914e+00
1.2042647916e+00
1.2042649071e+00
1.2042470033e+00
1.1992545607e+00
1.1992980171e+00
1.1993561749e+00
1.1994419372e+00
1.1995539064e+00
1.1996902499e+00
1.1998487688e+00
1.2000269465e+00
1.2002220363e+00
1.2004311167e+00
1.2006511849e+00
1.2008792104e+00
1.2011122234e+00
1.2013473576e+00
1.2015819251e+00
1.2018134421e+00
1.2020396846e+00
1.2022586947e+00
1.2024688144e+00
1.2026686736e+00
1.2028572039e+00
1.2030336123e+00
1.2031973793e+00
1.2033482232e+00
1.2034860887e+00
1.2036111077e+00
1.2037235832e+00
1.2038239517e+00
1.2039127664e+00
1.2039906639e+00
1.2040583495e+00
1.2041165696e+00
1.2041661000e+00
1.2042077237e+00
1.2042422226e+00
1.2042703603e+00
1.2042928768e+00
1.2043104755e+00
1.2043238205e+00
1.2043335279e+00
1.2043401650e+00
1.2043442454e+00
1.2043462306e+00
1.2043465276e+00
1.2043454931e+00
1.2043434331e+00
1.2043406088e+00
1.2043372375e+00
1.2043334993e+00
1.2043295393e+00
1.2043254739e+00
1.2043213932e+00
1.2043173666e+00
1.2043134449e+00
1.2043096655e+00
1.2043060532e+00
1.2043026246e+00
1.2042993885e+00
1.2042963487e+00
1.2042935048e+00
1.2042908537e+00
1.2042883897e+00
1.2042861061e+00
1.2042839948e+00
1.2042820474e+00
1.2042802549e+00
1.2042786081e+00
1.2042770980e+00
1.2042757156e+00
1.2042744522e+00
1.2042732991e+00
1.2042722482e+00
1.2042712917e+00
1.2042704222e+00
1.2042696327e+00
1.2042689164e+00
1.2042682674e+00
1.2042676799e+00
1.2042671487e+00
1.2042666691e+00
1.2042662369e+00
1.2042658484e+00
1.2042655005e+00
1.2042651908e+00
1.2042649173e+00
1.2042646789e+00
1.2042644749e+00
1.2042643055e+00
1.2042641710e+00
1.2042640726e+00
1.2042640112e+00
1.2042639874e+00
1.2042640005e+00
1.2042640479e+00
1.2042641228e+00
1.2042642128e+00
1.2042642960e+00
1.2042643388e+00
1.2042642920e+00
1.2042459823e+00
1.1994266686e+00
1.1994693042e+00
1.1995256271e+00
1.1996086216e+00
1.1997169240e+00
1.1998487688e+00
1.2000020253e+00
1.2001742747e+00
1.2003628587e+00
1.2005649697e+00
1.2007777019e+00
1.2009981425e+00
1.2012234163e+00
1.2014507678e+00
1.2016775923e+00
1.2019015013e+00
1.2021203358e+00
1.2023322112e+00
1.2025355125e+00
1.2027289182e+00
1.2029113802e+00
1.2030821300e+00
1.2032406475e+00
1.2033866554e+00
1.2035200818e+00
1.2036410481e+00
1.2037498309e+00
1.2038468475e+00
1.2039326211e+00
1.2040077665e+00
1.2040729605e+00
1.2041289297e+00
1.2041764259e+00
1.2042162166e+00
1.2042490655e+00
1.2042757255e+00
1.2042969233e+00
1.2043133551e+00
1.2043256751e+00
1.2043344937e+00
1.2043403697e+00
1.2043438110e+00
1.2043452702e+00
1.2043451476e+00
1.2043437900e+00
1.2043414954e+00
1.2043385141e+00
1.2043350548e+00
1.2043312868e+00
1.2043273463e+00
1.2043233397e+00
1.2043193491e+00
1.2043154355e+00
1.2043116436e+00
1.2043080037e+00
1.2043045365e+00
1.2043012537e+00
1.2042981612e+00
1.2042952602e+00
1.2042925486e+00
1.2042900217e+00
1.2042876735e+00
1.2042854967e+00
1.2042834833e+00
1.2042816249e+00
1.2042799131e+00
1.2042783389e+00
1.2042768940e+00
1.2042755698e+00
1.2042743582e+00
1.2042732511e+00
1.2042722408e+00
1.2042713201e+00
1.2042704820e+00
1.2042697198e+00
1.2042690274e+00
1.2042683990e+00
1.2042678291e+00
1.2042673130e+00
1.2042668461e+00
1.2042664245e+00
1.2042660444e+00
1.2042657031e+00
1.2042653979e+00
1.2042651269e+00
1.2042648883e+00
1.2042646814e+00
1.2042645052e+00
1.2042643596e+00
1.2042642440e+00
1.2042641580e+00
1.2042641001e+00
1.2042640679e+00
1.2042640563e+00
1.2042640572e+00
1.2042640573e+00
1.2042640375e+00
1.2042639703e+00
1.2042638205e+00
1.2042452372e+00
1.1996203524e+00
1.1996619531e+00
1.1997161818e+00
1.1997960289e+00
1.1999001855e+00
1.2000269465e+00
1.2001742747e+00
1.2003398403e+00
1.2005211037e+00
1.2007153624e+00
1.2009198410e+00
1.2011317351e+00
1.2013482987e+00
1.2015668774e+00
1.2017849829e+00
1.2020003114e+00
1.2022107991e+00
1.2024146237e+00
1.2026102392e+00
1.2027963610e+00
1.2029719825e+00
1.2031363475e+00
1.2032889525e+00
1.2034295115e+00
1.2035579488e+00
1.2036743623e+00
1.2037790115e+00
1.2038722817e+00
1.2039546724e+00
1.2040267648e+00
1.2040892108e+00
1.2041427063e+00
1.2041879815e+00
1.2042257786e+00
1.2042568446e+00
1.2042819131e+00
1.2043016987e+00
1.2043168833e+00
1.2043281123e+00
1.2043359847e+00
1.2043410518e+00
1.2043438112e+00
1.2043447080e+00
1.2043441322e+00
1.2043424222e+00
1.2043398652e+00
1.2043367024e+00
1.2043331312e+00
1.2043293118e+00
1.2043253697e+00
1.2043214029e+00
1.2043174839e+00
1.2043136666e+00
1.2043099879e+00
1.2043064729e+00
1.2043031364e+00
1.2042999865e+00
1.2042970254e+00
1.2042942520e+00
1.2042916620e+00
1.2042892500e+00
1.2042870087e+00
1.2042849307e+00
1.2042830078e+00
1.2042812319e+00
1.2042795945e+00
1.2042780876e+00
1.2042767029e+00
1.2042754325e+00
1.2042742687e+00
1.2042732041e+00
1.2042722314e+00
1.2042713437e+00
1.2042705345e+00
1.2042697976e+00
1.2042691271e+00
1.2042685175e+00
1.2042679638e+00
1.2042674613e+00
1.2042670058e+00
1.2042665933e+00
1.2042662204e+00
1.2042658841e+00
1.2042655820e+00
1.2042653116e+00
1.2042650713e+00
1.2042648595e+00
1.2042646750e+00
1.2042645165e+00
1.2042643829e+00
1.2042642722e+00
1.2042641821e+00
1.2042641085e+00
1.2042640459e+00
1.2042639855e+00
1.2042639153e+00
1.2042638186e+00
1.2042636748e+00
1.2042634584e+00
1.2042446851e+00
1.1998325521e+00
1.1998729447e+00
1.1999248626e+00
1.2000012508e+00
1.2001008492e+00
1.2002220363e+00
1.2003628587e+00
1.2005211037e+00
1.2006943394e+00
1.2008800002e+00
1.2010754288e+00
1.2012779637e+00
1.2014849750e+00
1.2016939434e+00
1.2019024837e+00
1.2021084087e+00
1.2023097364e+00
1.2025047348e+00
1.2026919133e+00
1.2028700484e+00
1.2030381612e+00
1.2031955277e+00
1.2033416467e+00
1.2034762392e+00
1.2035992124e+00
1.2037106521e+00
1.2038107873e+00
1.2038999803e+00
1.2039786939e+00
1.2040474817e+00
1.2041069593e+00
1.2041577957e+00
1.2042006892e+00
1.2042363594e+00
1.2042655276e+00
1.2042889101e+00
1.2043072019e+00
1.2043210720e+00
1.2043311509e+00
1.2043380276e+00
1.2043422412e+00
1.2043442806e+00
1.2043445796e+00
1.2043435194e+00
1.2043414270e+00
1.2043385806e+00
1.2043352098e+00
1.2043315027e+00
1.2043276082e+00
1.2043236429e+00
1.2043196944e+00
1.2043158275e+00
1.2043120874e+00
1.2043085045e+00
1.2043050974e+00
1.2043018763e+00
1.2042988445e+00
1.2042960014e+00
1.2042933427e+00
1.2042908629e+00
1.2042885547e+00
1.2042864104e+00
1.2042844219e+00
1.2042825812e+00
1.2042808798e+00
1.2042793100e+00
1.2042778637e+00
1.2042765334e+00
1.2042753116e+00
1.2042741909e+00
1.2042731645e+00
1.2042722255e+00
1.2042713674e+00
1.2042705842e+00
1.2042698698e+00
1.2042692189e+00
1.2042686261e+00
1.2042680867e+00
1.2042675961e+00
1.2042671503e+00
1.2042667455e+00
1.2042663782e+00
1.2042660457e+00
1.2042657450e+00
1.2042654740e+00
1.2042652304e+00
1.2042650126e+00
1.2042648186e+00
1.2042646469e+00
1.2042644951e+00
1.2042643611e+00
1.2042642413e+00
1.2042641317e+00
1.2042640258e+00
1.2042639158e+00
1.2042637907e+00
1.2042636373e+00
1.2042634395e+00
1.2042631796e+00
1.2042442698e+00
1.2000600488e+00
1.2000990833e+00
1.2001485254e+00
1.2002211985e+00
1.2003159115e+00
1.2004311167e+00
1.2005649697e+00
1.2007153624e+00
1.2008800002e+00
1.2010564399e+00
1.2012421753e+00
1.2014346721e+00
1.2016314500e+00
1.2018301087e+00
1.2020283989e+00
1.2022242335e+00
1.2024157423e+00
1.2026012678e+00
1.2027794010e+00
1.2029489637e+00
1.2031090271e+00
1.2032588838e+00
1.2033980535e+00
1.2035262495e+00
1.2036433758e+00
1.2037494925e+00
1.2038448089e+00
1.2039296510e+00
1.2040044530e+00
1.2040697288e+00
1.2041260634e+00
1.2041740882e+00
1.2042144735e+00
1.2042479071e+00
1.2042750874e+00
1.2042967053e+00
1.2043134385e+00
1.2043259368e+00
1.2043348176e+00
1.2043406548e+00
1.2043439772e+00
1.2043452609e+00
1.2043449301e+00
1.2043433544e+00
1.2043408513e+00
1.2043376872e+00
1.2043340824e+00
1.2043302132e+00
1.2043262194e+00
1.2043222068e+00
1.2043182544e+00
1.2043144175e+00
1.2043107342e+00
1.2043072273e+00
1.2043039099e+00
1.2043007864e+00
1.2042978565e+00
1.2042951157e+00
1.2042925577e+00
1.2042901744e+00
1.2042879577e+00
1.2042858987e+00
1.2042839891e+00
1.2042822203e+00
1.2042805845e+00
1.2042790737e+00
1.2042776805e+00
1.2042763976e+00
1.2042752179e+00
1.2042741345e+00
1.2042731410e+00
1.2042722310e+00
1.2042713984e+00
1.2042706373e+00
1.2042699422e+00
1.2042693077e+00
1.2042687291e+00
1.2042682015e+00
1.2042677207e+00
1.2042672827e+00
1.2042668837e+00
1.2042665206e+00
1.2042661901e+00
1.2042658897e+00
1.2042656167e+00
1.2042653689e+00
1.2042651441e+00
1.2042649403e+00
1.2042647550e+00
1.2042645861e+00
1.2042644303e+00
1.2042642843e+00
1.2042641433e+00
1.2042640016e+00
1.2042638516e+00
1.2042636843e+00
1.2042634887e+00
1.2042632530e+00
1.2042629641e+00
1.2042439544e+00
1.2002995352e+00
1.2003370863e+00
1.2003839257e+00
1.2004526966e+00
1.2005422670e+00
1.2006511849e+00
1.2007777019e+00
1.2009198410e+00
1.2010754288e+00
1.2012421753e+00
1.2014177075e+00
1.2015996503e+00
1.2017856547e+00
1.2019734719e+00
1.2021609691e+00
1.2023461904e+00
1.2025273586e+00
1.2027029186e+00
1.2028715251e+00
1.2030320696e+00
1.2031836563e+00
1.2033256151e+00
1.2034574705e+00
1.2035789445e+00
1.2036899232e+00
1.2037904542e+00
1.2038807134e+00
1.2039610004e+00
1.2040317085e+00
1.2040933193e+00
1.2041463761e+00
1.2041914781e+00
1.2042292579e+00
1.2042603754e+00
1.2042854979e+00
1.2043052941e+00
1.2043204176e+00
1.2043315013e+00
1.2043391443e+00
1.2043439076e+00
1.2043463053e+00
1.2043468030e+00
1.2043458123e+00
1.2043436927e+00
1.2043407502e+00
1.2043372413e+00
1.2043333746e+00
1.2043293172e+00
1.2043251976e+00
1.2043211127e+00
1.2043171313e+00
1.2043133012e+00
1.2043096516e+00
1.2043061994e+00
1.2043029506e+00
1.2042999055e+00
1.2042970587e+00
1.2042944030e+00
1.2042919289e+00
1.2042896269e+00
1.2042874870e+00
1.2042854999e+00
1.2042836564e+00
1.2042819480e+00
1.2042803667e+00
1.2042789050e+00
1.2042775555e+00
1.2042763113e+00
1.2042751658e+00
1.2042741127e+00
1.2042731456e+00
1.2042722587e+00
1.2042714461e+00
1.2042707023e+00
1.2042700221e+00
1.2042694003e+00
1.2042688323e+00
1.2042683135e+00
1.2042678397e+00
1.2042674070e+00
1.2042670119e+00
1.2042666508e+00
1.2042663208e+00
1.2042660190e+00
1.2042657429e+00
1.2042654898e+00
1.2042652574e+00
1.2042650433e+00
1.2042648451e+00
1.2042646598e+00
1.2042644845e+00
1.2042643153e+00
1.2042641478e+00
1.2042639764e+00
1.2042637946e+00
1.2042635947e+00
1.2042633681e+00
1.2042631053e+00
1.2042627973e+00
1.2042437132e+00
1.2005476981e+00
1.2005836519e+00
1.2006278099e+00
1.2006925446e+00
1.2007768014e+00
1.2008792104e+00
1.2009981425e+00
1.2011317351e+00
1.2012779637e+00
1.2014346721e+00
1.2015996503e+00
1.2017706622e+00
1.2019455209e+00
1.2021221077e+00
1.2022984370e+00
1.2024726630e+00
1.2026431300e+00
1.2028083650e+00
1.2029671124e+00
1.2031183141e+00
1.2032611298e+00
1.2033949088e+00
1.2035191995e+00
1.2036337166e+00
1.2037383436e+00
1.2038331008e+00
1.2039181431e+00
1.2039937305e+00
1.2040602250e+00
1.2041180641e+00
1.2041677564e+00
1.2042098590e+00
1.2042449723e+00
1.2042737193e+00
1.2042967405e+00
1.2043146752e+00
1.2043281562e+00
1.2043377938e+00
1.2043441715e+00
1.2043478330e+00
1.2043492804e+00
1.2043489650e+00
1.2043472884e+00
1.2043445976e+00
1.2043411889e+00
1.2043373071e+00
1.2043331514e+00
1.2043288777e+00
1.2043246053e+00
1.2043204206e+00
1.2043163844e+00
1.2043125349e+00
1.2043088945e+00
1.2043054726e+00
1.2043022699e+00
1.2042992808e+00
1.2042964966e+00
1.2042939058e+00
1.2042914971e+00
1.2042892583e+00
1.2042871787e+00
1.2042852474e+00
1.2042834553e+00
1.2042817933e+00
1.2042802536e+00
1.2042788286e+00
1.2042775115e+00
1.2042762956e+00
1.2042751747e+00
1.2042741428e+00
1.2042731939e+00
1.2042723226e+00