# vtk DataFile Version 2.0
Blank
ASCII
DATASET STRUCTURED_GRID
DIMENSIONS 101 101 2
POINTS 20402 float
0.0000000000e+00 0.0000000000e+00 0.0000000000e+00
1.0000000000e-02 0.0000000000e+00 0.0000000000e+00
2.0000000000e-02 0.0000000000e+00 0.0000000000e+00
3.0000000000e-02 0.0000000000e+00 0.0000000000e+00
4.0000000000e-02 0.0000000000e+00 0.0000000000e+00
5.0000000000e-02 0.0000000000e+00 0.0000000000e+00
6.0000000000e-02 0.0000000000e+00 0.0000000000e+00
7.0000000000e-02 0.0000000000e+00 0.0000000000e+00
8.0000000000e-02 0.0000000000e+00 0.0000000000e+00
9.0000000000e-02 0.0000000000e+00 0.0000000000e+00
1.0000000000e-01 0.0000000000e+00 0.0000000000e+00
1.1000000000e-01 0.0000000000e+00 0.0000000000e+00
1.2000000000e-01 0.0000000000e+00 0.0000000000e+00
1.3000000000e-01 0.0000000000e+00 0.0000000000e+00
1.4000000000e-01 0.0000000000e+00 0.0000000000e+00
1.5000000000e-01 0.0000000000e+00 0.0000000000e+00
1.6000000000e-01 0.0000000000e+00 0.0000000000e+00
1.7000000000e-01 0.0000000000e+00 0.0000000000e+00
1.8000000000e-01 0.0000000000e+00 0.0000000000e+00
1.9000000000e-01 0.0000000000e+00 0.0000000000e+00
2.0000000000e-01 0.0000000000e+00 0.0000000000e+00
2.1000000000e-01 0.0000000000e+00 0.0000000000e+00
2.2000000000e-01 0.0000000000e+00 0.0000000000e+00
2.3000000000e-01 0.0000000000e+00 0.0000000000e+00
2.4000000000e-01 0.0000000000e+00 0.0000000000e+00
2.5000000000e-01 0.0000000000e+00 0.0000000000e+00
2.6000000000e-01 0.0000000000e+00 0.0000000000e+00
2.7000000000e-01 0.0000000000e+00 0.0000000000e+00
2.8000000000e-01 0.0000000000e+00 0.0000000000e+00
2.9000000000e-01 0.0000000000e+00 0.0000000000e+00
3.0000000000e-01 0.0000000000e+00 0.0000000000e+00
3.1000000000e-01 0.0000000000e+00 0.0000000000e+00
3.2000000000e-01 0.0000000000e+00 0.0000000000e+00
3.3000000000e-01 0.0000000000e+00 0.0000000000e+00
3.4000000000e-01 0.0000000000e+00 0.0000000000e+00
3.5000000000e-01 0.0000000000e+00 0.0000000000e+00
3.6000000000e-01 0.0000000000e+00 0.0000000000e+00
3.7000000000e-01 0.0000000000e+00 0.0000000000e+00
3.8000000000e-01 0.0000000000e+00 0.0000000000e+00
3.9000000000e-01 0.0000000000e+00 0.0000000000e+00
4.0000000000e-01 0.0000000000e+00 0.0000000000e+00
4.1000000000e-01 0.0000000000e+00 0.0000000000e+00
4.2000000000e-01 0.0000000000e+00 0.0000000000e+00
4.3000000000e-01 0.0000000000e+00 0.0000000000e+00
4.4000000000e-01 0.0000000000e+00 0.0000000000e+00
4.5000000000e-01 0.0000000000e+00 0.0000000000e+00
4.6000000000e-01 0.0000000000e+00 0.0000000000e+00
4.7000000000e-01 0.0000000000e+00 0.0000000000e+00
4.8000000000e-01 0.0000000000e+00 0.0000000000e+00
4.9000000000e-01 0.0000000000e+00 0.0000000000e+00
5.0000000000e-01 0.0000000000e+00 0.0000000000e+00
5.1000000000e-01 0.0000000000e+00 0.0000000000e+00
5.2000000000e-01 0.0000000000e+00 0.0000000000e+00
5.3000000000e-01 0.0000000000e+00 0.0000000000e+00
5.4000000000e-01 0.0000000000e+00 0.0000000000e+00
5.5000000000e-01 0.0000000000e+00 0.0000000000e+00
5.6000000000e-01 0.0000000000e+00 0.0000000000e+00
5.7000000000e-01 0.0000000000e+00 0.0000000000e+00
5.8000000000e-01 0.0000000000e+00 0.0000000000e+00
5.9000000000e-01 0.0000000000e+00 0.0000000000e+00
6.0000000000e-01 0.0000000000e+00 0.0000000000e+00
6.1000000000e-01 0.0000000000e+00 0.0000000000e+00
6.2000000000e-01 0.0000000000e+00 0.0000000000e+00
6.3000000000e-01 0.0000000000e+00 0.0000000000e+00
6.4000000000e-01 0.0000000000e+00 0.0000000000e+00
6.5000000000e-01 0.0000000000e+00 0.0000000000e+00
6.6000000000e-01 0.0000000000e+00 0.0000000000e+00
6.7000000000e-01 0.0000000000e+00 0.0000000000e+00
6.8000000000e-01 0.0000000000e+00 0.0000000000e+00
6.9000000000e-01 0.0000000000e+00 0.0000000000e+00
7.0000000000e-01 0.0000000000e+00 0.0000000000e+00
7.1000000000e-01 0.0000000000e+00 0.0000000000e+00
7.2000000000e-01 0.0000000000e+00 0.0000000000e+00
7.3000000000e-01 0.0000000000e+00 0.0000000000e+00
7.4000000000e-01 0.0000000000e+00 0.0000000000e+00
7.5000000000e-01 0.0000000000e+00 0.0000000000e+00
7.6000000000e-01 0.0000000000e+00 0.0000000000e+00
7.7000000000e-01 0.0000000000e+00 0.0000000000e+00
7.8000000000e-01 0.0000000000e+00 0.0000000000e+00
7.9000000000e-01 0.0000000000e+00 0.0000000000e+00
8.0000000000e-01 0.0000000000e+00 0.0000000000e+00
8.1000000000e-01 0.0000000000e+00 0.0000000000e+00
8.2000000000e-01 0.0000000000e+00 0.0000000000e+00
8.3000000000e-01 0.0000000000e+00 0.0000000000e+00
8.4000000000e-01 0.0000000000e+00 0.0000000000e+00
8.5000000000e-01 0.0000000000e+00 0.0000000000e+00
8.6000000000e-01 0.0000000000e+00 0.0000000000e+00
8.7000000000e-01 0.0000000000e+00 0.0000000000e+00
8.8000000000e-01 0.0000000000e+00 0.0000000000e+00
8.9000000000e-01 0.0000000000e+00 0.0000000000e+00
9.0000000000e-01 0.0000000000e+00 0.0000000000e+00
9.1000000000e-01 0.0000000000e+00 0.0000000000e+00
9.2000000000e-01 0.0000000000e+00 0.0000000000e+00
9.3000000000e-01 0.0000000000e+00 0.0000000000e+00
9.4000000000e-01 0.0000000000e+00 0.0000000000e+00
9.5000000000e-01 0.0000000000e+00 0.0000000000e+00
9.6000000000e-01 0.0000000000e+00 0.0000000000e+00
9.7000000000e-01 0.0000000000e+00 0.0000000000e+00
9.8000000000e-01 0.0000000000e+00 0.0000000000e+00
9.9000000000e-01 0.0000000000e+00 0.0000000000e+00
1.0000000000e+00 0.0000000000e+00 0.0000000000e+00
0.0000000000e+00 1.0000000000e-02 0.0000000000e+00
1.0000000000e-02 1.0000000000e-02 0.0000000000e+00
2.0000000000e-02 1.0000000000e-02 0.0000000000e+00
3.0000000000e-02 1.0000000000e-02 0.0000000000e+00
4.0000000000e-02 1.0000000000e-02 0.0000000000e+00
5.0000000000e-02 1.0000000000e-02 0.0000000000e+00
6.0000000000e-02 1.0000000000e-02 0.0000000000e+00
7.0000000000e-02 1.0000000000e-02 0.0000000000e+00
8.0000000000e-02 1.0000000000e-02 0.0000000000e+00
9.0000000000e-02 1.0000000000e-02 0.0000000000e+00
1.0000000000e-01 1.0000000000e-02 0.0000000000e+00
1.1000000000e-01 1.0000000000e-02 0.0000000000e+00
1.2000000000e-01 1.0000000000e-02 0.0000000000e+00
1.3000000000e-01 1.0000000000e-02 0.0000000000e+00
1.4000000000e-01 1.0000000000e-02 0.0000000000e+00
1.5000000000e-01 1.0000000000e-02 0.0000000000e+00
1.6000000000e-01 1.0000000000e-02 0.0000000000e+00
1.7000000000e-01 1.0000000000e-02 0.0000000000e+00
1.8000000000e-01 1.0000000000e-02 0.0000000000e+00
1.9000000000e-01 1.0000000000e-02 0.0000000000e+00
2.0000000000e-01 1.0000000000e-02 0.0000000000e+00
2.1000000000e-01 1.0000000000e-02 0.0000000000e+00
2.2000000000e-01 1.0000000000e-02 0.0000000000e+00
2.3000000000e-01 1.0000000000e-02 0.0000000000e+00
2.4000000000e-01 1.0000000000e-02 0.0000000000e+00
2.5000000000e-01 1.0000000000e-02 0.0000000000e+00
2.6000000000e-01 1.0000000000e-02 0.0000000000e+00
2.7000000000e-01 1.0000000000e-02 0.0000000000e+00
2.8000000000e-01 1.0000000000e-02 0.0000000000e+00
2.9000000000e-01 1.0000000000e-02 0.0000000000e+00
3.0000000000e-01 1.0000000000e-02 0.0000000000e+00
3.1000000000e-01 1.0000000000e-02 0.0000000000e+00
3.2000000000e-01 1.0000000000e-02 0.0000000000e+00
3.3000000000e-01 1.0000000000e-02 0.0000000000e+00
3.4000000000e-01 1.0000000000e-02 0.0000000000e+00
3.5000000000e-01 1.0000000000e-02 0.0000000000e+00
3.6000000000e-01 1.0000000000e-02 0.0000000000e+00
3.7000000000e-01 1.0000000000e-02 0.0000000000e+00
3.8000000000e-01 1.0000000000e-02 0.0000000000e+00
3.9000000000e-01 1.0000000000e-02 0.0000000000e+00
4.0000000000e-01 1.0000000000e-02 0.0000000000e+00
4.1000000000e-01 1.0000000000e-02 0.0000000000e+00
4.2000000000e-01 1.0000000000e-02 0.0000000000e+00
4.3000000000e-01 1.0000000000e-02 0.0000000000e+00
4.4000000000e-01 1.0000000000e-02 0.0000000000e+00
4.5000000000e-01 1.0000000000e-02 0.0000000000e+00
4.6000000000e-01 1.0000000000e-02 0.0000000000e+00
4.7000000000e-01 1.0000000000e-02 0.0000000000e+00
4.8000000000e-01 1.0000000000e-02 0.0000000000e+00
4.9000000000e-01 1.0000000000e-02 0.0000000000e+00
5.0000000000e-01 1.0000000000e-02 0.0000000000e+00
5.1000000000e-01 1.0000000000e-02 0.0000000000e+00
5.2000000000e-01 1.0000000000e-02 0.0000000000e+00
5.3000000000e-01 1.0000000000e-02 0.0000000000e+00
5.4000000000e-01 1.0000000000e-02 0.0000000000e+00
5.5000000000e-01 1.0000000000e-02 0.0000000000e+00
5.6000000000e-01 1.0000000000e-02 0.0000000000e+00
5.7000000000e-01 1.0000000000e-02 0.0000000000e+00
5.8000000000e-01 1.0000000000e-02 0.0000000000e+00
5.9000000000e-01 1.0000000000e-02 0.0000000000e+00
6.0000000000e-01 1.0000000000e-02 0.0000000000e+00
6.1000000000e-01 1.0000000000e-02 0.0000000000e+00
6.2000000000e-01 1.0000000000e-02 0.0000000000e+00
6.3000000000e-01 1.0000000000e-02 0.0000000000e+00
6.4000000000e-01 1.0000000000e-02 0.0000000000e+00
6.5000000000e-01 1.0000000000e-02 0.0000000000e+00
6.6000000000e-01 1.0000000000e-02 0.0000000000e+00
6.7000000000e-01 1.0000000000e-02 0.0000000000e+00
6.8000000000e-01 1.0000000000e-02 0.0000000000e+00
6.9000000000e-01 1.0000000000e-02 0.0000000000e+00
7.0000000000e-01 1.0000000000e-02 0.0000000000e+00
7.1000000000e-01 1.0000000000e-02 0.0000000000e+00
7.2000000000e-01 1.0000000000e-02 0.0000000000e+00
7.3000000000e-01 1.0000000000e-02 0.0000000000e+00
7.4000000000e-01 1.0000000000e-02 0.0000000000e+00
7.5000000000e-01 1.0000000000e-02 0.0000000000e+00
7.6000000000e-01 1.0000000000e-02 0.0000000000e+00
7.7000000000e-01 1.0000000000e-02 0.0000000000e+00
7.8000000000e-01 1.0000000000e-02 0.0000000000e+00
7.9000000000e-01 1.0000000000e-02 0.0000000000e+00
8.0000000000e-01 1.0000000000e-02 0.0000000000e+00
8.1000000000e-01 1.0000000000e-02 0.0000000000e+00
8.2000000000e-01 1.0000000000e-02 0.0000000000e+00
8.3000000000e-01 1.0000000000e-02 0.0000000000e+00
8.4000000000e-01 1.0000000000e-02 0.0000000000e+00
8.5000000000e-01 1.0000000000e-02 0.0000000000e+00
8.6000000000e-01 1.0000000000e-02 0.0000000000e+00
8.7000000000e-01 1.0000000000e-02 0.0000000000e+00
8.8000000000e-01 1.0000000000e-02 0.0000000000e+00
8.9000000000e-01 1.0000000000e-02 0.0000000000e+00
9.0000000000e-01 1.0000000000e-02 0.0000000000e+00
9.1000000000e-01 1.0000000000e-02 0.0000000000e+00
9.2000000000e-01 1.0000000000e-02 0.0000000000e+00
[...]
CELL_DATA 10000

SCALARS massDensity float
LOOKUP_TABLE default
1.2012532599e+00
1.2012620085e+00
1.2012816621e+00
1.2013109763e+00
1.2013496816e+00
1.2013974155e+00
1.2014537282e+00
1.2015180918e+00
1.2015899093e+00
1.2016685247e+00
1.2017532330e+00
1.2018432912e+00
1.2019379291e+00
1.2020363606e+00
1.2021377939e+00
1.2022414427e+00
1.2023465354e+00
1.2024523253e+00
1.2025580978e+00
1.2026631786e+00
1.2027669400e+00
1.2028688058e+00
1.2029682554e+00
1.2030648271e+00
1.2031581194e+00
1.2032477922e+00
1.2033335659e+00
1.2034152205e+00
1.2034925935e+00
1.2035655770e+00
1.2036341140e+00
1.2036981952e+00
1.2037578537e+00
1.2038131613e+00
1.2038642230e+00
1.2039111731e+00
1.2039541696e+00
1.2039933905e+00
1.2040290285e+00
1.2040612877e+00
1.2040903793e+00
1.2041165182e+00
1.2041399200e+00
1.2041607986e+00
1.2041793629e+00
1.2041958161e+00
1.2042103529e+00
1.2042231590e+00
1.2042344101e+00
1.2042442709e+00
1.2042528947e+00
1.2042604239e+00
1.2042669891e+00
1.2042727100e+00
1.2042776953e+00
1.2042820436e+00
1.2042858433e+00
1.2042891740e+00
1.2042921063e+00
1.2042947030e+00
1.2042970195e+00
1.2042991046e+00
1.2043010009e+00
1.2043027458e+00
1.2043043714e+00
1.2043059056e+00
1.2043073724e+00
1.2043087920e+00
1.2043101818e+00
1.2043115560e+00
1.2043129264e+00
1.2043143025e+00
1.2043156914e+00
1.2043170985e+00
1.2043185272e+00
1.2043199791e+00
1.2043214543e+00
1.2043229511e+00
1.2043244664e+00
1.2043259953e+00
1.2043275319e+00
1.2043290684e+00
1.2043305959e+00
1.2043321042e+00
1.2043335818e+00
1.2043350159e+00
1.2043363928e+00
1.2043376977e+00
1.2043389148e+00
1.2043400272e+00
1.2043410169e+00
1.2043418643e+00
1.2043425475e+00
1.2043430409e+00
1.2043433138e+00
1.2043433277e+00
1.2043430334e+00
1.2043423698e+00
1.2043412700e+00
1.2043451521e+00
1.2012620085e+00
1.2012706557e+00
1.2012902306e+00
1.2013194931e+00
1.2013581557e+00
1.2014058445e+00
1.2014621041e+00
1.2015264034e+00
1.2015981445e+00
1.2016766710e+00
1.2017612790e+00
1.2018512266e+00
1.2019457456e+00
1.2020440514e+00
1.2021453549e+00
1.2022488715e+00
1.2023538321e+00
1.2024594914e+00
1.2025651371e+00
1.2026700961e+00
1.2027737422e+00
1.2028754997e+00
1.2029748493e+00
1.2030713291e+00
1.2031645382e+00
1.2032541357e+00
1.2033398421e+00
1.2034214365e+00
1.2034987558e+00
1.2035716910e+00
1.2036401844e+00
1.2037042252e+00
1.2037638458e+00
1.2038191165e+00
1.2038701417e+00
1.2039170542e+00
1.2039600115e+00
1.2039991902e+00
1.2040347826e+00
1.2040669917e+00
1.2040960284e+00
1.2041221068e+00
1.2041454424e+00
1.2041662482e+00
1.2041847333e+00
1.2042011002e+00
1.2042155438e+00
1.2042282493e+00
1.2042393925e+00
1.2042491377e+00
1.2042576384e+00
1.2042650366e+00
1.2042714630e+00
1.2042770369e+00
1.2042818672e+00
1.2042860519e+00
1.2042896795e+00
1.2042928292e+00
1.2042955714e+00
1.2042979685e+00
1.2043000759e+00
1.2043019419e+00
1.2043036091e+00
1.2043051142e+00
1.2043064895e+00
1.2043077626e+00
1.2043089574e+00
1.2043100942e+00
1.2043111903e+00
1.2043122603e+00
1.2043133164e+00
1.2043143684e+00
1.2043154244e+00
1.2043164905e+00
1.2043175712e+00
1.2043186695e+00
1.2043197868e+00
1.2043209231e+00
1.2043220773e+00
1.2043232467e+00
1.2043244273e+00
1.2043256140e+00
1.2043268005e+00
1.2043279791e+00
1.2043291411e+00
1.2043302768e+00
1.2043313753e+00
1.2043324249e+00
1.2043334129e+00
1.2043343260e+00
1.2043351496e+00
1.2043358686e+00
1.2043364665e+00
1.2043369257e+00
1.2043372268e+00
1.2043373492e+00
1.2043372716e+00
1.2043369762e+00
1.2043364582e+00
1.2043415319e+00
1.2012816621e+00
1.2012902306e+00
1.2013096239e+00
1.2013386615e+00
1.2013770519e+00
1.2014244199e+00
1.2014803099e+00
1.2015441926e+00
1.2016154724e+00
1.2016934966e+00
1.2017775647e+00
1.2018669399e+00
1.2019608581e+00
1.2020585401e+00
1.2021592012e+00
1.2022620625e+00
1.2023663591e+00
1.2024713513e+00
1.2025763305e+00
1.2026806287e+00
1.2027836229e+00
1.2028847418e+00
1.2029834685e+00
1.2030793447e+00
1.2031719712e+00
1.2032610097e+00
1.2033461818e+00
1.2034272682e+00
1.2035041063e+00
1.2035765878e+00
1.2036446550e+00
1.2037082971e+00
1.2037675459e+00
1.2038224714e+00
1.2038731768e+00
1.2039197943e+00
1.2039624799e+00
1.2040014095e+00
1.2040367738e+00
1.2040687747e+00
1.2040976215e+00
1.2041235274e+00
1.2041467062e+00
1.2041673699e+00
1.2041857261e+00
1.2042019763e+00
1.2042163142e+00
1.2042289241e+00
1.2042399806e+00
1.2042496472e+00
1.2042580764e+00
1.2042654096e+00
1.2042717766e+00
1.2042772962e+00
1.2042820765e+00
1.2042862151e+00
1.2042898000e+00
1.2042929098e+00
1.2042956147e+00
1.2042979768e+00
1.2043000509e+00
1.2043018853e+00
1.2043035222e+00
1.2043049984e+00
1.2043063458e+00
1.2043075922e+00
1.2043087612e+00
1.2043098734e+00
1.2043109460e+00
1.2043119937e+00
1.2043130288e+00
1.2043140616e+00
1.2043151001e+00
1.2043161508e+00
1.2043172185e+00
1.2043183066e+00
1.2043194166e+00
1.2043205492e+00
1.2043217032e+00
1.2043228764e+00
1.2043240650e+00
1.2043252640e+00
1.2043264673e+00
1.2043276672e+00
1.2043288551e+00
1.2043300209e+00
1.2043311538e+00
1.2043322418e+00
1.2043332720e+00
1.2043342308e+00
1.2043351038e+00
1.2043358761e+00
1.2043365326e+00
1.2043370576e+00
1.2043374362e+00
1.2043376550e+00
1.2043377044e+00
1.2043375838e+00
1.2043373110e+00
1.2043430813e+00
1.2013109763e+00
1.2013194931e+00
1.2013386615e+00
1.2013673897e+00
1.2014053885e+00
1.2014522843e+00
1.2015076249e+00
1.2015708844e+00
1.2016414726e+00
1.2017187419e+00
1.2018019988e+00
1.2018905124e+00
1.2019835266e+00
1.2020802691e+00
1.2021799632e+00
1.2022818367e+00
1.2023851331e+00
1.2024891189e+00
1.2025930931e+00
1.2026963935e+00
1.2027984038e+00
1.2028985573e+00
1.2029963428e+00
1.2030913056e+00
1.2031830508e+00
1.2032712427e+00
1.2033556058e+00
1.2034359223e+00
1.2035120314e+00
1.2035838252e+00
1.2036512467e+00
1.2037142847e+00
1.2037729709e+00
1.2038273740e+00
1.2038775964e+00
1.2039237688e+00
1.2039660457e+00
1.2040046010e+00
1.2040396237e+00
1.2040713137e+00
1.2040998784e+00
1.2041255288e+00
1.2041484768e+00
1.2041689324e+00
1.2041871014e+00
1.2042031834e+00
1.2042173702e+00
1.2042298448e+00
1.2042407798e+00
1.2042503376e+00
1.2042586693e+00
1.2042659149e+00
1.2042722031e+00
1.2042776517e+00
1.2042823678e+00
1.2042864482e+00
1.2042899802e+00
1.2042930415e+00
1.2042957018e+00
1.2042980227e+00
1.2043000585e+00
1.2043018571e+00
1.2043034604e+00
1.2043049048e+00
1.2043062222e+00
1.2043074400e+00
1.2043085818e+00
1.2043096682e+00
1.2043107163e+00
1.2043117411e+00
1.2043127548e+00
1.2043137679e+00
1.2043147886e+00
1.2043158238e+00
1.2043168784e+00
1.2043179561e+00
1.2043190588e+00
1.2043201875e+00
1.2043213412e+00
1.2043225181e+00
1.2043237146e+00
1.2043249259e+00
1.2043261460e+00
1.2043273673e+00
1.2043285812e+00
1.2043297776e+00
1.2043309456e+00
1.2043320730e+00
1.2043331469e+00
1.2043341535e+00
1.2043350788e+00
1.2043359082e+00
1.2043366276e+00
1.2043372234e+00
1.2043376835e+00
1.2043379990e+00
1.2043381661e+00
1.2043381907e+00
1.2043380937e+00
1.2043443919e+00
1.2013496816e+00
1.2013581557e+00
1.2013770519e+00
1.2014053885e+00
1.2014428802e+00
1.2014891585e+00
1.2015437758e+00
1.2016062131e+00
1.2016758863e+00
1.2017521567e+00
1.2018343386e+00
1.2019217110e+00
1.2020135267e+00
1.2021090239e+00
1.2022074352e+00
1.2023079992e+00
1.2024099682e+00
1.2025126191e+00
1.2026152593e+00
1.2027172355e+00
1.2028179388e+00
1.2029168105e+00
1.2030133452e+00
1.2031070945e+00
1.2031976679e+00
1.2032847344e+00
1.2033680215e+00
1.2034473143e+00
1.2035224535e+00
1.2035933329e+00
1.2036598955e+00
1.2037221305e+00
1.2037800685e+00
1.2038337777e+00
1.2038833587e+00
1.2039289405e+00
1.2039706754e+00
1.2040087351e+00
1.2040433061e+00
1.2040745857e+00
1.2041027786e+00
1.2041280932e+00
1.2041507386e+00
1.2041709224e+00
1.2041888475e+00
1.2042047114e+00
1.2042187033e+00
1.2042310040e+00
1.2042417840e+00
1.2042512038e+00
1.2042594126e+00
1.2042665487e+00
1.2042727394e+00
1.2042781009e+00
1.2042827391e+00
1.2042867497e+00
1.2042902187e+00
1.2042932233e+00
1.2042958320e+00
1.2042981058e+00
1.2043000984e+00
1.2043018572e+00
1.2043034235e+00
1.2043048334e+00
1.2043061184e+00
1.2043073058e+00
1.2043084191e+00
1.2043094785e+00
1.2043105013e+00
1.2043115024e+00
1.2043124942e+00
1.2043134871e+00
1.2043144898e+00
1.2043155092e+00
1.2043165505e+00
1.2043176177e+00
1.2043187131e+00
1.2043198377e+00
1.2043209912e+00
1.2043221716e+00
1.2043233760e+00
1.2043245995e+00
1.2043258364e+00
1.2043270793e+00
1.2043283193e+00
1.2043295467e+00
1.2043307503e+00
1.2043319179e+00
1.2043330364e+00
1.2043340923e+00
1.2043350714e+00
1.2043359598e+00
1.2043367439e+00
1.2043374113e+00
1.2043379516e+00
1.2043383580e+00
1.2043386288e+00
1.2043387702e+00
1.2043387996e+00
1.2043455118e+00
1.2013974155e+00
1.2014058445e+00
1.2014244199e+00
1.2014522843e+00
1.2014891585e+00
1.2015346797e+00
1.2015884079e+00
1.2016498317e+00
1.2017183768e+00
1.2017934136e+00
1.2018742682e+00
1.2019602303e+00
1.2020505655e+00
1.2021445233e+00
1.2022413495e+00
1.2023402942e+00
1.2024406228e+00
1.2025416226e+00
1.2026426132e+00
1.2027429512e+00
1.2028420381e+00
1.2029393234e+00
1.2030343105e+00
1.2031265576e+00
1.2032156808e+00
1.2033013539e+00
1.2033833089e+00
1.2034613340e+00
1.2035352725e+00
1.2036050193e+00
1.2036705186e+00
1.2037317592e+00
1.2037887713e+00
1.2038416216e+00
1.2038904092e+00
1.2039352605e+00
1.2039763257e+00
1.2040137733e+00
1.2040477870e+00
1.2040785607e+00
1.2041062959e+00
1.2041311976e+00
1.2041534717e+00
1.2041733224e+00
1.2041909496e+00
1.2042065473e+00
1.2042203023e+00
1.2042323922e+00
1.2042429851e+00
1.2042522389e+00
1.2042603006e+00
1.2042673063e+00
1.2042733815e+00
1.2042786405e+00
1.2042831876e+00
1.2042871172e+00
1.2042905139e+00
1.2042934536e+00
1.2042960040e+00
1.2042982251e+00
1.2043001699e+00
1.2043018849e+00
1.2043034109e+00
1.2043047837e+00
1.2043060343e+00
1.2043071895e+00
1.2043082727e+00
1.2043093040e+00
1.2043103007e+00
1.2043112774e+00
1.2043122467e+00
1.2043132192e+00
1.2043142035e+00
1.2043152068e+00
1.2043162347e+00
1.2043172913e+00
1.2043183791e+00
1.2043194997e+00
1.2043206527e+00
1.2043218367e+00
1.2043230488e+00
1.2043242847e+00
1.2043255384e+00
1.2043268027e+00
1.2043280692e+00
1.2043293277e+00
1.2043305672e+00
1.2043317754e+00
1.2043329392e+00
1.2043340449e+00
1.2043350785e+00
1.2043360262e+00
1.2043368747e+00
1.2043376121e+00
1.2043382286e+00
1.2043387179e+00
1.2043390779e+00
1.2043393131e+00
1.2043394351e+00
1.2043464850e+00
1.2014537282e+00
1.2014621041e+00
1.2014803099e+00
1.2015076249e+00
1.2015437758e+00
1.2015884079e+00
1.2016410893e+00
1.2017013190e+00
1.2017685329e+00
1.2018421146e+00
1.2019214019e+00
1.2020056994e+00
1.2020942855e+00
1.2021864256e+00
1.2022813790e+00
1.2023784113e+00
1.2024768009e+00
1.2025758504e+00
1.2026748912e+00
1.2027732935e+00
1.2028704694e+00
1.2029658799e+00
1.2030590371e+00
1.2031495084e+00
1.2032369165e+00
1.2033209421e+00
1.2034013215e+00
1.2034778475e+00
1.2035503656e+00
1.2036187732e+00
1.2036830147e+00
1.2037430796e+00
1.2037989968e+00
1.2038508319e+00
1.2038986815e+00
1.2039426700e+00
1.2039829440e+00
1.2040196692e+00
1.2040530251e+00
1.2040832024e+00
1.2041103984e+00
1.2041348142e+00
1.2041566517e+00
1.2041761113e+00
1.2041933890e+00
1.2042086755e+00
1.2042221535e+00
1.2042339978e+00
1.2042443731e+00
1.2042534345e+00
1.2042613261e+00
1.2042681817e+00
1.2042741242e+00
1.2042792662e+00
1.2042837099e+00
1.2042875478e+00
1.2042908632e+00
1.2042937305e+00
1.2042962163e+00
1.2042983794e+00
1.2043002718e+00
1.2043019393e+00
1.2043034221e+00
1.2043047552e+00
1.2043059692e+00
1.2043070906e+00
1.2043081424e+00
1.2043091446e+00
1.2043101141e+00
1.2043110658e+00
1.2043120121e+00
1.2043129636e+00
1.2043139293e+00
1.2043149163e+00
1.2043159306e+00
1.2043169763e+00
1.2043180566e+00
1.2043191729e+00
1.2043203255e+00
1.2043215130e+00
1.2043227329e+00
1.2043239809e+00
1.2043252514e+00
1.2043265373e+00
1.2043278302e+00
1.2043291199e+00
1.2043303954e+00
1.2043316443e+00
1.2043328535e+00
1.2043340090e+00
1.2043350969e+00
1.2043361032e+00
1.2043370145e+00
1.2043378190e+00
1.2043385067e+00
1.2043390705e+00
1.2043395073e+00
1.2043398185e+00
1.2043400106e+00
1.2043473464e+00
1.2015180918e+00
1.2015264034e+00
1.2015441926e+00
1.2015708844e+00
1.2016062131e+00
1.2016498317e+00
1.2017013190e+00
1.2017601845e+00
1.2018258781e+00
1.2018977959e+00
1.2019752920e+00
1.2020576853e+00
1.2021442719e+00
1.2022343323e+00
1.2023271440e+00
1.2024219879e+00
1.2025181600e+00
1.2026149773e+00
1.2027117877e+00
1.2028079744e+00
1.2029029638e+00
1.2029962281e+00
1.2030872912e+00
1.2031757293e+00
1.2032611745e+00
1.2033433136e+00
1.2034218896e+00
1.2034966989e+00
1.2035675911e+00
1.2036344651e+00
1.2036972670e+00
1.2037559856e+00
1.2038106496e+00
1.2038613225e+00
1.2039080990e+00
1.2039511001e+00
1.2039904694e+00
1.2040263683e+00
1.2040589728e+00
1.2040884687e+00
1.2041150491e+00
1.2041389104e+00
1.2041602504e+00
1.2041792645e+00
1.2041961448e+00
1.2042110773e+00
1.2042242413e+00
1.2042358072e+00
1.2042459365e+00
1.2042547805e+00
1.2042624807e+00
1.2042691677e+00
1.2042749618e+00
1.2042799731e+00
1.2042843017e+00
1.2042880381e+00
1.2042912638e+00
1.2042940517e+00
1.2042964669e+00
1.2042985669e+00
1.2043004028e+00
1.2043020194e+00
1.2043034560e+00
1.2043047471e+00
1.2043059226e+00
1.2043070086e+00
1.2043080277e+00
1.2043089997e+00
1.2043099413e+00
1.2043108672e+00
1.2043117900e+00
1.2043127202e+00
1.2043136668e+00
1.2043146373e+00
1.2043156377e+00
1.2043166726e+00
1.2043177451e+00
1.2043188571e+00
1.2043200091e+00
1.2043212001e+00
1.2043224276e+00
1.2043236878e+00
1.2043249751e+00
1.2043262825e+00
1.2043276017e+00
1.2043289226e+00
1.2043302340e+00
1.2043315235e+00
1.2043327778e+00
1.2043339827e+00
1.2043351240e+00
1.2043361875e+00
1.2043371595e+00
1.2043380276e+00
1.2043387812e+00
1.2043394122e+00
1.2043399155e+00
1.2043402896e+00
1.2043405368e+00
1.2043481226e+00
1.2015899093e+00
1.2015981445e+00
1.2016154724e+00
1.2016414726e+00
1.2016758863e+00
1.2017183768e+00
1.2017685329e+00
1.2018258781e+00
1.2018898753e+00
1.2019599374e+00
1.2020354339e+00
1.2021157027e+00
1.2022000567e+00
1.2022877963e+00
1.2023782163e+00
1.2024706176e+00
1.2025643130e+00
1.2026586386e+00
1.2027529577e+00
1.2028466708e+00
1.2029392177e+00
1.2030300854e+00
1.2031188091e+00
1.2032049767e+00
1.2032882287e+00
1.2033682608e+00
1.2034448217e+00
1.2035177136e+00
1.2035867891e+00
1.2036519501e+00
1.2037131433e+00
1.2037703583e+00
1.2038236223e+00
1.2038729974e+00
1.2039185753e+00
1.2039604741e+00
1.2039988332e+00
1.2040338103e+00
1.2040655762e+00
1.2040943122e+00
1.2041202063e+00
1.2041434501e+00
1.2041642358e+00
1.2041827544e+00
1.2041991927e+00
1.2042137323e+00
1.2042265476e+00
1.2042378050e+00
1.2042476619e+00
1.2042562661e+00
1.2042637550e+00
1.2042702563e+00
1.2042758873e+00
1.2042807555e+00
1.2042849582e+00
1.2042885841e+00
1.2042917124e+00
1.2042944144e+00
1.2042967534e+00
1.2042987858e+00
1.2043005614e+00
1.2043021238e+00
1.2043035116e+00
1.2043047585e+00
1.2043058936e+00
1.2043069427e+00
1.2043079280e+00
1.2043088687e+00
1.2043097816e+00
1.2043106812e+00
1.2043115799e+00
1.2043124883e+00
1.2043134157e+00
1.2043143694e+00
1.2043153558e+00
1.2043163795e+00
1.2043174442e+00
1.2043185518e+00
1.2043197031e+00
1.2043208975e+00
1.2043221326e+00
1.2043234048e+00
1.2043247089e+00
1.2043260378e+00
1.2043273831e+00
1.2043287351e+00
1.2043300822e+00
1.2043314119e+00
1.2043327107e+00
1.2043339643e+00
1.2043351579e+00
1.2043362768e+00
1.2043373070e+00
1.2043382352e+00
1.2043390498e+00
1.2043397415e+00
1.2043403032e+00
1.2043407309e+00
1.2043410232e+00
1.2043488339e+00
1.2016685247e+00
1.2016766710e+00
1.2016934966e+00
1.2017187419e+00
1.2017521567e+00
1.2017934136e+00
1.2018421146e+00
1.2018977959e+00
1.2019599374e+00
1.2020279678e+00
1.2021012762e+00
1.2021792184e+00
1.2022611287e+00
1.2023463264e+00
1.2024341282e+00
1.2025238539e+00
1.2026148377e+00
1.2027064336e+00
1.2027980248e+00
1.2028890277e+00
1.2029788998e+00
1.2030671417e+00
1.2031533031e+00
1.2032369827e+00
1.2033178324e+00
1.2033955557e+00
1.2034699091e+00
1.2035406997e+00
1.2036077851e+00
1.2036710689e+00
1.2037305000e+00
1.2037860673e+00
1.2038377978e+00
1.2038857509e+00
1.2039300161e+00
1.2039707076e+00
1.2040079608e+00
1.2040419285e+00
1.2040727767e+00
1.2041006813e+00
1.2041258249e+00
1.2041483933e+00
1.2041685735e+00
1.2041865507e+00
1.2042025066e+00
1.2042166175e+00
1.2042290530e+00
1.2042399746e+00
1.2042495353e+00
1.2042578786e+00
1.2042651384e+00
1.2042714386e+00
1.2042768934e+00
1.2042816069e+00
1.2042856742e+00
1.2042891812e+00
1.2042922052e+00
1.2042948153e+00
1.2042970733e+00
1.2042990339e+00
1.2043007456e+00
1.2043022510e+00
1.2043035876e+00
1.2043047882e+00
1.2043058814e+00
1.2043068922e+00
1.2043078425e+00
1.2043087511e+00
1.2043096345e+00
1.2043105071e+00
1.2043113812e+00
1.2043122676e+00
1.2043131753e+00
1.2043141120e+00
1.2043150842e+00
1.2043160967e+00
1.2043171533e+00
1.2043182565e+00
1.2043194071e+00
1.2043206047e+00
1.2043218474e+00
1.2043231316e+00
1.2043244522e+00
1.2043258024e+00
1.2043271738e+00
1.2043285565e+00
1.2043299390e+00
1.2043313085e+00
1.2043326512e+00
1.2043339524e+00
1.2043351969e+00
1.2043363695e+00
1.2043374553e+00
1.2043384402e+00
1.2043393117e+00
1.2043400587e+00
1.2043406726e+00
1.2043411470e+00
1.2043414779e+00
1.2043494956e+00
1.2017532330e+00
1.2017612790e+00
1.2017775647e+00
1.2018019988e+00
1.2018343386e+00
1.2018742682e+00
1.2019214019e+00
1.2019752920e+00
1.2020354339e+00
1.2021012762e+00
1.2021722264e+00
1.2022476624e+00
1.2023269384e+00
1.2024093975e+00
1.2024943768e+00
1.2025812195e+00
1.2026692798e+00
1.2027579340e+00
1.2028465839e+00
1.2029346659e+00
1.2030216538e+00
1.2031070654e+00
1.2031904637e+00
1.2032714614e+00
1.2033497204e+00
1.2034249546e+00
1.2034969273e+00
1.2035654527e+00
1.2036303916e+00
1.2036916516e+00
1.2037491823e+00
1.2038029734e+00
1.2038530501e+00
1.2038994705e+00
1.2039423205e+00
1.2039817107e+00
1.2040177719e+00
1.2040506520e+00
1.2040805114e+00
1.2041075206e+00
1.2041318559e+00
1.2041536975e+00
1.2041732261e+00
1.2041906212e+00
1.2042060585e+00
1.2042197089e+00
1.2042317365e+00
1.2042422978e+00
1.2042515410e+00
1.2042596051e+00
1.2042666197e+00
1.2042727051e+00
1.2042779716e+00
1.2042825206e+00
1.2042864438e+00
1.2042898247e+00
1.2042927380e+00
1.2042952511e+00
1.2042974236e+00
1.2042993087e+00
1.2043009535e+00
1.2043023993e+00
1.2043036825e+00
1.2043048350e+00
1.2043058847e+00
1.2043068561e+00
1.2043077703e+00
1.2043086459e+00
1.2043094992e+00
1.2043103443e+00
1.2043111935e+00
1.2043120574e+00
1.2043129451e+00
1.2043138646e+00
1.2043148224e+00
1.2043158235e+00
1.2043168721e+00
1.2043179706e+00
1.2043191204e+00
1.2043203213e+00
1.2043215714e+00
1.2043228675e+00
1.2043242045e+00
1.2043255759e+00
1.2043269731e+00
1.2043283862e+00
1.2043298037e+00
1.2043312123e+00
1.2043325981e+00
1.2043339459e+00
1.2043352400e+00
1.2043364644e+00
1.2043376035e+00
1.2043386423e+00
1.2043395669e+00
1.2043403650e+00
1.2043410263e+00
1.2043415426e+00
1.2043419077e+00
1.2043501193e+00
1.2018432912e+00
1.2018512266e+00
1.2018669399e+00
1.2018905124e+00
1.2019217110e+00
1.2019602303e+00
1.2020056994e+00
1.2020576853e+00
1.2021157027e+00
1.2021792184e+00
1.2022476624e+00
1.2023204331e+00
1.2023969093e+00
1.2024764556e+00
1.2025584344e+00
1.2026422105e+00
1.2027271628e+00
1.2028126879e+00
1.2028982104e+00
1.2029831852e+00
1.2030671061e+00
1.2031495067e+00
1.2032299666e+00
1.2033081109e+00
1.2033836146e+00
1.2034562005e+00
1.2035256412e+00
1.2035917563e+00
1.2036544123e+00
1.2037135190e+00
1.2037690284e+00
1.2038209296e+00
1.2038692476e+00
1.2039140374e+00
1.2039553823e+00
1.2039933884e+00
1.2040281823e+00
1.2040599059e+00
1.2040887145e+00
1.2041147718e+00
1.2041382485e+00
1.2041593179e+00
1.2041781546e+00
1.2041949317e+00
1.2042098188e+00
1.2042229807e+00
1.2042345760e+00
1.2042447557e+00
1.2042536627e+00
1.2042614314e+00
1.2042681871e+00
1.2042740455e+00
1.2042791136e+00
1.2042834891e+00
1.2042872608e+00
1.2042905091e+00
1.2042933065e+00
1.2042957179e+00
1.2042978012e+00
1.2042996076e+00
1.2043011827e+00
1.2043025666e+00
1.2043037946e+00
1.2043048975e+00
1.2043059024e+00
1.2043068332e+00
1.2043077105e+00
1.2043085525e+00
1.2043093750e+00
1.2043101921e+00
1.2043110159e+00
1.2043118570e+00