# vtk DataFile Version 2.0
Blank
ASCII
DATASET STRUCTURED_GRID
DIMENSIONS 101 101 2
POINTS 20402 float
0.0000000000e+00 0.0000000000e+00 0.0000000000e+00
1.0000000000e-02 0.0000000000e+00 0.0000000000e+00
2.0000000000e-02 0.0000000000e+00 0.0000000000e+00
3.0000000000e-02 0.0000000000e+00 0.0000000000e+00
4.0000000000e-02 0.0000000000e+00 0.0000000000e+00
5.0000000000e-02 0.0000000000e+00 0.0000000000e+00
6.0000000000e-02 0.0000000000e+00 0.0000000000e+00
7.0000000000e-02 0.0000000000e+00 0.0000000000e+00
8.0000000000e-02 0.0000000000e+00 0.0000000000e+00
9.0000000000e-02 0.0000000000e+00 0.0000000000e+00
1.0000000000e-01 0.0000000000e+00 0.0000000000e+00
1.1000000000e-01 0.0000000000e+00 0.0000000000e+00
1.2000000000e-01 0.0000000000e+00 0.0000000000e+00
1.3000000000e-01 0.0000000000e+00 0.0000000000e+00
1.4000000000e-01 0.0000000000e+00 0.0000000000e+00
1.5000000000e-01 0.0000000000e+00 0.0000000000e+00
1.6000000000e-01 0.0000000000e+00 0.0000000000e+00
1.7000000000e-01 0.0000000000e+00 0.0000000000e+00
1.8000000000e-01 0.0000000000e+00 0.0000000000e+00
1.9000000000e-01 0.0000000000e+00 0.0000000000e+00
2.0000000000e-01 0.0000000000e+00 0.0000000000e+00
2.1000000000e-01 0.0000000000e+00 0.0000000000e+00
2.2000000000e-01 0.0000000000e+00 0.0000000000e+00
2.3000000000e-01 0.0000000000e+00 0.0000000000e+00
2.4000000000e-01 0.0000000000e+00 0.0000000000e+00
2.5000000000e-01 0.0000000000e+00 0.0000000000e+00
2.6000000000e-01 0.0000000000e+00 0.0000000000e+00
2.7000000000e-01 0.0000000000e+00 0.0000000000e+00
2.8000000000e-01 0.0000000000e+00 0.0000000000e+00
2.9000000000e-01 0.0000000000e+00 0.0000000000e+00
3.0000000000e-01 0.0000000000e+00 0.0000000000e+00
3.1000000000e-01 0.0000000000e+00 0.0000000000e+00
3.2000000000e-01 0.0000000000e+00 0.0000000000e+00
3.3000000000e-01 0.0000000000e+00 0.0000000000e+00
3.4000000000e-01 0.0000000000e+00 0.0000000000e+00
3.5000000000e-01 0.0000000000e+00 0.0000000000e+00
3.6000000000e-01 0.0000000000e+00 0.0000000000e+00
3.7000000000e-01 0.0000000000e+00 0.0000000000e+00
3.8000000000e-01 0.0000000000e+00 0.0000000000e+00
3.9000000000e-01 0.0000000000e+00 0.0000000000e+00
4.0000000000e-01 0.0000000000e+00 0.0000000000e+00
4.1000000000e-01 0.0000000000e+00 0.0000000000e+00
4.2000000000e-01 0.0000000000e+00 0.0000000000e+00
4.3000000000e-01 0.0000000000e+00 0.0000000000e+00
4.4000000000e-01 0.0000000000e+00 0.0000000000e+00
4.5000000000e-01 0.0000000000e+00 0.0000000000e+00
4.6000000000e-01 0.0000000000e+00 0.0000000000e+00
4.7000000000e-01 0.0000000000e+00 0.0000000000e+00
4.8000000000e-01 0.0000000000e+00 0.0000000000e+00
4.9000000000e-01 0.0000000000e+00 0.0000000000e+00
5.0000000000e-01 0.0000000000e+00 0.0000000000e+00
5.1000000000e-01 0.0000000000e+00 0.0000000000e+00
5.2000000000e-01 0.0000000000e+00 0.0000000000e+00
5.3000000000e-01 0.0000000000e+00 0.0000000000e+00
5.4000000000e-01 0.0000000000e+00 0.0000000000e+00
5.5000000000e-01 0.0000000000e+00 0.0000000000e+00
5.6000000000e-01 0.0000000000e+00 0.0000000000e+00
5.7000000000e-01 0.0000000000e+00 0.0000000000e+00
5.8000000000e-01 0.0000000000e+00 0.0000000000e+00
5.9000000000e-01 0.0000000000e+00 0.0000000000e+00
6.0000000000e-01 0.0000000000e+00 0.0000000000e+00
6.1000000000e-01 0.0000000000e+00 0.0000000000e+00
6.2000000000e-01 0.0000000000e+00 0.0000000000e+00
6.3000000000e-01 0.0000000000e+00 0.0000000000e+00
6.4000000000e-01 0.0000000000e+00 0.0000000000e+00
6.5000000000e-01 0.0000000000e+00 0.0000000000e+00
6.6000000000e-01 0.0000000000e+00 0.0000000000e+00
6.7000000000e-01 0.0000000000e+00 0.0000000000e+00
6.8000000000e-01 0.0000000000e+00 0.0000000000e+00
6.9000000000e-01 0.0000000000e+00 0.0000000000e+00
7.0000000000e-01 0.0000000000e+00 0.0000000000e+00
7.1000000000e-01 0.0000000000e+00 0.0000000000e+00
7.2000000000e-01 0.0000000000e+00 0.0000000000e+00
7.3000000000e-01 0.0000000000e+00 0.0000000000e+00
7.4000000000e-01 0.0000000000e+00 0.0000000000e+00
7.5000000000e-01 0.0000000000e+00 0.0000000000e+00
7.6000000000e-01 0.0000000000e+00 0.0000000000e+00
7.7000000000e-01 0.0000000000e+00 0.0000000000e+00
7.8000000000e-01 0.0000000000e+00 0.0000000000e+00
7.9000000000e-01 0.0000000000e+00 0.0000000000e+00
8.0000000000e-01 0.0000000000e+00 0.0000000000e+00
8.1000000000e-01 0.0000000000e+00 0.0000000000e+00
8.2000000000e-01 0.0000000000e+00 0.0000000000e+00
8.3000000000e-01 0.0000000000e+00 0.0000000000e+00
8.4000000000e-01 0.0000000000e+00 0.0000000000e+00
8.5000000000e-01 0.0000000000e+00 0.0000000000e+00
8.6000000000e-01 0.0000000000e+00 0.0000000000e+00
8.7000000000e-01 0.0000000000e+00 0.0000000000e+00
8.8000000000e-01 0.0000000000e+00 0.0000000000e+00
8.9000000000e-01 0.0000000000e+00 0.0000000000e+00
9.0000000000e-01 0.0000000000e+00 0.0000000000e+00
9.1000000000e-01 0.0000000000e+00 0.0000000000e+00
9.2000000000e-01 0.0000000000e+00 0.0000000000e+00
9.3000000000e-01 0.0000000000e+00 0.0000000000e+00
9.4000000000e-01 0.0000000000e+00 0.0000000000e+00
9.5000000000e-01 0.0000000000e+00 0.0000000000e+00
9.6000000000e-01 0.0000000000e+00 0.0000000000e+00
9.7000000000e-01 0.0000000000e+00 0.0000000000e+00
9.8000000000e-01 0.0000000000e+00 0.0000000000e+00
9.9000000000e-01 0.0000000000e+00 0.0000000000e+00
1.0000000000e+00 0.0000000000e+00 0.0000000000e+00
0.0000000000e+00 1.0000000000e-02 0.0000000000e+00
1.0000000000e-02 1.0000000000e-02 0.0000000000e+00
2.0000000000e-02 1.0000000000e-02 0.0000000000e+00
3.0000000000e-02 1.0000000000e-02 0.0000000000e+00
4.0000000000e-02 1.0000000000e-02 0.0000000000e+00
5.0000000000e-02 1.0000000000e-02 0.0000000000e+00
6.0000000000e-02 1.0000000000e-02 0.0000000000e+00
7.0000000000e-02 1.0000000000e-02 0.0000000000e+00
8.0000000000e-02 1.0000000000e-02 0.0000000000e+00
9.0000000000e-02 1.0000000000e-02 0.0000000000e+00
1.0000000000e-01 1.0000000000e-02 0.0000000000e+00
1.1000000000e-01 1.0000000000e-02 0.0000000000e+00
1.2000000000e-01 1.0000000000e-02 0.0000000000e+00
1.3000000000e-01 1.0000000000e-02 0.0000000000e+00
1.4000000000e-01 1.0000000000e-02 0.0000000000e+00
1.5000000000e-01 1.0000000000e-02 0.0000000000e+00
1.6000000000e-01 1.0000000000e-02 0.0000000000e+00
1.7000000000e-01 1.0000000000e-02 0.0000000000e+00
1.8000000000e-01 1.0000000000e-02 0.0000000000e+00
1.9000000000e-01 1.0000000000e-02 0.0000000000e+00
2.0000000000e-01 1.0000000000e-02 0.0000000000e+00
2.1000000000e-01 1.0000000000e-02 0.0000000000e+00
2.2000000000e-01 1.0000000000e-02 0.0000000000e+00
2.3000000000e-01 1.0000000000e-02 0.0000000000e+00
2.4000000000e-01 1.0000000000e-02 0.0000000000e+00
2.5000000000e-01 1.0000000000e-02 0.0000000000e+00
2.6000000000e-01 1.0000000000e-02 0.0000000000e+00
2.7000000000e-01 1.0000000000e-02 0.0000000000e+00
2.8000000000e-01 1.0000000000e-02 0.0000000000e+00
2.9000000000e-01 1.0000000000e-02 0.0000000000e+00
3.0000000000e-01 1.0000000000e-02 0.0000000000e+00
3.1000000000e-01 1.0000000000e-02 0.0000000000e+00
3.2000000000e-01 1.0000000000e-02 0.0000000000e+00
3.3000000000e-01 1.0000000000e-02 0.0000000000e+00
3.4000000000e-01 1.0000000000e-02 0.0000000000e+00
3.5000000000e-01 1.0000000000e-02 0.0000000000e+00
3.6000000000e-01 1.0000000000e-02 0.0000000000e+00
3.7000000000e-01 1.0000000000e-02 0.0000000000e+00
3.8000000000e-01 1.0000000000e-02 0.0000000000e+00
3.9000000000e-01 1.0000000000e-02 0.0000000000e+00
4.0000000000e-01 1.0000000000e-02 0.0000000000e+00
4.1000000000e-01 1.0000000000e-02 0.0000000000e+00
4.2000000000e-01 1.0000000000e-02 0.0000000000e+00
4.3000000000e-01 1.0000000000e-02 0.0000000000e+00
4.4000000000e-01 1.0000000000e-02 0.0000000000e+00
4.5000000000e-01 1.0000000000e-02 0.0000000000e+00
4.6000000000e-01 1.0000000000e-02 0.0000000000e+00
4.7000000000e-01 1.0000000000e-02 0.0000000000e+00
4.8000000000e-01 1.0000000000e-02 0.0000000000e+00
4.9000000000e-01 1.0000000000e-02 0.0000000000e+00
5.0000000000e-01 1.0000000000e-02 0.0000000000e+00
5.1000000000e-01 1.0000000000e-02 0.0000000000e+00
5.2000000000e-01 1.0000000000e-02 0.0000000000e+00
5.3000000000e-01 1.0000000000e-02 0.0000000000e+00
5.4000000000e-01 1.0000000000e-02 0.0000000000e+00
5.5000000000e-01 1.0000000000e-02 0.0000000000e+00
5.6000000000e-01 1.0000000000e-02 0.0000000000e+00
5.7000000000e-01 1.0000000000e-02 0.0000000000e+00
5.8000000000e-01 1.0000000000e-02 0.0000000000e+00
5.9000000000e-01 1.0000000000e-02 0.0000000000e+00
6.0000000000e-01 1.0000000000e-02 0.0000000000e+00
6.1000000000e-01 1.0000000000e-02 0.0000000000e+00
6.2000000000e-01 1.0000000000e-02 0.0000000000e+00
6.3000000000e-01 1.0000000000e-02 0.0000000000e+00
6.4000000000e-01 1.0000000000e-02 0.0000000000e+00
6.5000000000e-01 1.0000000000e-02 0.0000000000e+00
6.6000000000e-01 1.0000000000e-02 0.0000000000e+00
6.7000000000e-01 1.0000000000e-02 0.0000000000e+00
6.8000000000e-01 1.0000000000e-02 0.0000000000e+00
6.9000000000e-01 1.0000000000e-02 0.0000000000e+00
7.0000000000e-01 1.0000000000e-02 0.0000000000e+00
7.1000000000e-01 1.0000000000e-02 0.0000000000e+00
7.2000000000e-01 1.0000000000e-02 0.0000000000e+00
7.3000000000e-01 1.0000000000e-02 0.0000000000e+00
7.4000000000e-01 1.0000000000e-02 0.0000000000e+00
7.5000000000e-01 1.0000000000e-02 0.0000000000e+00
7.6000000000e-01 1.0000000000e-02 0.0000000000e+00
7.7000000000e-01 1.0000000000e-02 0.0000000000e+00
7.8000000000e-01 1.0000000000e-02 0.0000000000e+00
7.9000000000e-01 1.0000000000e-02 0.0000000000e+00
8.0000000000e-01 1.0000000000e-02 0.0000000000e+00
8.1000000000e-01 1.0000000000e-02 0.0000000000e+00
8.2000000000e-01 1.0000000000e-02 0.0000000000e+00
8.3000000000e-01 1.0000000000e-02 0.0000000000e+00
8.4000000000e-01 1.0000000000e-02 0.0000000000e+00
8.5000000000e-01 1.0000000000e-02 0.0000000000e+00
8.6000000000e-01 1.0000000000e-02 0.0000000000e+00
8.7000000000e-01 1.0000000000e-02 0.0000000000e+00
8.8000000000e-01 1.0000000000e-02 0.0000000000e+00
8.9000000000e-01 1.0000000000e-02 0.0000000000e+00
9.0000000000e-01 1.0000000000e-02 0.0000000000e+00
9.1000000000e-01 1.0000000000e-02 0.0000000000e+00
9.2000000000e-01 1.0000000000e-02 0.0000000000e+00
[...]
CELL_DATA 10000

SCALARS massDensity float
LOOKUP_TABLE default
1.2013121796e+00
1.2013220440e+00
1.2013404899e+00
1.2013682904e+00
1.2014051725e+00
1.2014507786e+00
1.2015046746e+00
1.2015663563e+00
1.2016352574e+00
1.2017107578e+00
1.2017921922e+00
1.2018788598e+00
1.2019700340e+00
1.2020649722e+00
1.2021629253e+00
1.2022631479e+00
1.2023649067e+00
1.2024674895e+00
1.2025702128e+00
1.2026724288e+00
1.2027735314e+00
1.2028729616e+00
1.2029702109e+00
1.2030648250e+00
1.2031564053e+00
1.2032446099e+00
1.2033291539e+00
1.2034098085e+00
1.2034863990e+00
1.2035588031e+00
1.2036269472e+00
1.2036908039e+00
1.2037503872e+00
1.2038057493e+00
1.2038569756e+00
1.2039041810e+00
1.2039475047e+00
1.2039871070e+00
1.2040231640e+00
1.2040558647e+00
1.2040854065e+00
1.2041119924e+00
1.2041358275e+00
1.2041571169e+00
1.2041760623e+00
1.2041928612e+00
1.2042077039e+00
1.2042207735e+00
1.2042322435e+00
1.2042422780e+00
1.2042510305e+00
1.2042586443e+00
1.2042652516e+00
1.2042709743e+00
1.2042759236e+00
1.2042802009e+00
1.2042838978e+00
1.2042870971e+00
1.2042898728e+00
1.2042922912e+00
1.2042944111e+00
1.2042962848e+00
1.2042979583e+00
1.2042994724e+00
1.2043008627e+00
1.2043021604e+00
1.2043033927e+00
1.2043045833e+00
1.2043057527e+00
1.2043069184e+00
1.2043080953e+00
1.2043092961e+00
1.2043105312e+00
1.2043118087e+00
1.2043131350e+00
1.2043145145e+00
1.2043159497e+00
1.2043174414e+00
1.2043189884e+00
1.2043205877e+00
1.2043222346e+00
1.2043239222e+00
1.2043256422e+00
1.2043273840e+00
1.2043291355e+00
1.2043308825e+00
1.2043326091e+00
1.2043342976e+00
1.2043359285e+00
1.2043374801e+00
1.2043389284e+00
1.2043402468e+00
1.2043414049e+00
1.2043423675e+00
1.2043430927e+00
1.2043435300e+00
1.2043436181e+00
1.2043432845e+00
1.2043424530e+00
1.2043471288e+00
1.2013220440e+00
1.2013321936e+00
1.2013507609e+00
1.2013786336e+00
1.2014155445e+00
1.2014611413e+00
1.2015149942e+00
1.2015766025e+00
1.2016454034e+00
1.2017207792e+00
1.2018020674e+00
1.2018885698e+00
1.2019795621e+00
1.2020743042e+00
1.2021720497e+00
1.2022720552e+00
1.2023735903e+00
1.2024759447e+00
1.2025784375e+00
1.2026804226e+00
1.2027812963e+00
1.2028805009e+00
1.2029775299e+00
1.2030719300e+00
1.2031633040e+00
1.2032513109e+00
1.2033356667e+00
1.2034161430e+00
1.2034925658e+00
1.2035648126e+00
1.2036328105e+00
1.2036965314e+00
1.2037559897e+00
1.2038112369e+00
1.2038623583e+00
1.2039094679e+00
1.2039527048e+00
1.2039922283e+00
1.2040282140e+00
1.2040608500e+00
1.2040903330e+00
1.2041168652e+00
1.2041406509e+00
1.2041618942e+00
1.2041807961e+00
1.2041975531e+00
1.2042123550e+00
1.2042253835e+00
1.2042368118e+00
1.2042468029e+00
1.2042555098e+00
1.2042630747e+00
1.2042696293e+00
1.2042752945e+00
1.2042801810e+00
1.2042843894e+00
1.2042880107e+00
1.2042911268e+00
1.2042938112e+00
1.2042961292e+00
1.2042981392e+00
1.2042998926e+00
1.2043014348e+00
1.2043028056e+00
1.2043040401e+00
1.2043051686e+00
1.2043062176e+00
1.2043072101e+00
1.2043081657e+00
1.2043091014e+00
1.2043100314e+00
1.2043109679e+00
1.2043119207e+00
1.2043128978e+00
1.2043139054e+00
1.2043149481e+00
1.2043160285e+00
1.2043171482e+00
1.2043183067e+00
1.2043195024e+00
1.2043207321e+00
1.2043219911e+00
1.2043232734e+00
1.2043245714e+00
1.2043258762e+00
1.2043271777e+00
1.2043284642e+00
1.2043297230e+00
1.2043309399e+00
1.2043320994e+00
1.2043331846e+00
1.2043341772e+00
1.2043350571e+00
1.2043358023e+00
1.2043363889e+00
1.2043367914e+00
1.2043369847e+00
1.2043369486e+00
1.2043366798e+00
1.2043425280e+00
1.2013404899e+00
1.2013507609e+00
1.2013692389e+00
1.2013969535e+00
1.2014336419e+00
1.2014789568e+00
1.2015324728e+00
1.2015936939e+00
1.2016620614e+00
1.2017369624e+00
1.2018177388e+00
1.2019036973e+00
1.2019941182e+00
1.2020882665e+00
1.2021854002e+00
1.2022847814e+00
1.2023856835e+00
1.2024874014e+00
1.2025892580e+00
1.2026906118e+00
1.2027908622e+00
1.2028894556e+00
1.2029858880e+00
1.2030797093e+00
1.2031705241e+00
1.2032579939e+00
1.2033418358e+00
1.2034218229e+00
1.2034977818e+00
1.2035695910e+00
1.2036371773e+00
1.2037005131e+00
1.2037596120e+00
1.2038145255e+00
1.2038653377e+00
1.2039121622e+00
1.2039551369e+00
1.2039944201e+00
1.2040301861e+00
1.2040626220e+00
1.2040919230e+00
1.2041182903e+00
1.2041419267e+00
1.2041630352e+00
1.2041818157e+00
1.2041984633e+00
1.2042131668e+00
1.2042261070e+00
1.2042374558e+00
1.2042473756e+00
1.2042560183e+00
1.2042635255e+00
1.2042700280e+00
1.2042756463e+00
1.2042804903e+00
1.2042846603e+00
1.2042882466e+00
1.2042913309e+00
1.2042939861e+00
1.2042962775e+00
1.2042982629e+00
1.2042999937e+00
1.2043015150e+00
1.2043028666e+00
1.2043040831e+00
1.2043051949e+00
1.2043062283e+00
1.2043072062e+00
1.2043081481e+00
1.2043090708e+00
1.2043099886e+00
1.2043109134e+00
1.2043118549e+00
1.2043128210e+00
1.2043138179e+00
1.2043148498e+00
1.2043159196e+00
1.2043170284e+00
1.2043181758e+00
1.2043193602e+00
1.2043205782e+00
1.2043218253e+00
1.2043230952e+00
1.2043243807e+00
1.2043256730e+00
1.2043269621e+00
1.2043282368e+00
1.2043294847e+00
1.2043306922e+00
1.2043318449e+00
1.2043329272e+00
1.2043339224e+00
1.2043348135e+00
1.2043355827e+00
1.2043362126e+00
1.2043366875e+00
1.2043369967e+00
1.2043371398e+00
1.2043371382e+00
1.2043436310e+00
1.2013682904e+00
1.2013786336e+00
1.2013969535e+00
1.2014244175e+00
1.2014607661e+00
1.2015056559e+00
1.2015586668e+00
1.2016193082e+00
1.2016870276e+00
1.2017612181e+00
1.2018412289e+00
1.2019263728e+00
1.2020159379e+00
1.2021091956e+00
1.2022054120e+00
1.2023038554e+00
1.2024038070e+00
1.2025045678e+00
1.2026054676e+00
1.2027058705e+00
1.2028051822e+00
1.2029028535e+00
1.2029983858e+00
1.2030913324e+00
1.2031813022e+00
1.2032679591e+00
1.2033510232e+00
1.2034302692e+00
1.2035055254e+00
1.2035766708e+00
1.2036436332e+00
1.2037063846e+00
1.2037649387e+00
1.2038193459e+00
1.2038696899e+00
1.2039160825e+00
1.2039586606e+00
1.2039975806e+00
1.2040330154e+00
1.2040651500e+00
1.2040941781e+00
1.2041202984e+00
1.2041437125e+00
1.2041646209e+00
1.2041832220e+00
1.2041997090e+00
1.2042142691e+00
1.2042270813e+00
1.2042383161e+00
1.2042481344e+00
1.2042566869e+00
1.2042641138e+00
1.2042705449e+00
1.2042760996e+00
1.2042808869e+00
1.2042850062e+00
1.2042885473e+00
1.2042915909e+00
1.2042942097e+00
1.2042964681e+00
1.2042984239e+00
1.2043001277e+00
1.2043016245e+00
1.2043029536e+00
1.2043041497e+00
1.2043052427e+00
1.2043062588e+00
1.2043072207e+00
1.2043081477e+00
1.2043090566e+00
1.2043099613e+00
1.2043108737e+00
1.2043118035e+00
1.2043127584e+00
1.2043137443e+00
1.2043147654e+00
1.2043158245e+00
1.2043169226e+00
1.2043180593e+00
1.2043192327e+00
1.2043204396e+00
1.2043216753e+00
1.2043229339e+00
1.2043242080e+00
1.2043254892e+00
1.2043267677e+00
1.2043280328e+00
1.2043292726e+00
1.2043304744e+00
1.2043316245e+00
1.2043327089e+00
1.2043337128e+00
1.2043346217e+00
1.2043354215e+00
1.2043360996e+00
1.2043366467e+00
1.2043370595e+00
1.2043373449e+00
1.2043375273e+00
1.2043444602e+00
1.2014051725e+00
1.2014155445e+00
1.2014336419e+00
1.2014607661e+00
1.2014966600e+00
1.2015409851e+00
1.2015933266e+00
1.2016532012e+00
1.2017200633e+00
1.2017933148e+00
1.2018723127e+00
1.2019563796e+00
1.2020448122e+00
1.2021368919e+00
1.2022318936e+00
1.2023290957e+00
1.2024277878e+00
1.2025272807e+00
1.2026269119e+00
1.2027260542e+00
1.2028241200e+00
1.2029205679e+00
1.2030149046e+00
1.2031066898e+00
1.2031955365e+00
1.2032811131e+00
1.2033631428e+00
1.2034414031e+00
1.2035157241e+00
1.2035859865e+00
1.2036521183e+00
1.2037140921e+00
1.2037719208e+00
1.2038256545e+00
1.2038753751e+00
1.2039211935e+00
1.2039632441e+00
1.2040016818e+00
1.2040366769e+00
1.2040684120e+00
1.2040970784e+00
1.2041228724e+00
1.2041459928e+00
1.2041666378e+00
1.2041850032e+00
1.2042012799e+00
1.2042156527e+00
1.2042282985e+00
1.2042393858e+00
1.2042490735e+00
1.2042575103e+00
1.2042648350e+00
1.2042711758e+00
1.2042766508e+00
1.2042813676e+00
1.2042854245e+00
1.2042889103e+00
1.2042919049e+00
1.2042944800e+00
1.2042966996e+00
1.2042986205e+00
1.2043002931e+00
1.2043017619e+00
1.2043030657e+00
1.2043042388e+00
1.2043053110e+00
1.2043063081e+00
1.2043072526e+00
1.2043081636e+00
1.2043090577e+00
1.2043099487e+00
1.2043108482e+00
1.2043117658e+00
1.2043127091e+00
1.2043136838e+00
1.2043146942e+00
1.2043157426e+00
1.2043168301e+00
1.2043179562e+00
1.2043191191e+00
1.2043203154e+00
1.2043215405e+00
1.2043227886e+00
1.2043240525e+00
1.2043253240e+00
1.2043265937e+00
1.2043278512e+00
1.2043290852e+00
1.2043302840e+00
1.2043314347e+00
1.2043325247e+00
1.2043335409e+00
1.2043344709e+00
1.2043353032e+00
1.2043360285e+00
1.2043366409e+00
1.2043371400e+00
1.2043375339e+00
1.2043378425e+00
1.2043450833e+00
1.2014507786e+00
1.2014611413e+00
1.2014789568e+00
1.2015056559e+00
1.2015409851e+00
1.2015846107e+00
1.2016361251e+00
1.2016950524e+00
1.2017608565e+00
1.2018329486e+00
1.2019106967e+00
1.2019934337e+00
1.2020804684e+00
1.2021710932e+00
1.2022645952e+00
1.2023602635e+00
1.2024574000e+00
1.2025553255e+00
1.2026533889e+00
1.2027509722e+00
1.2028474978e+00
1.2029424319e+00
1.2030352898e+00
1.2031256372e+00
1.2032130939e+00
1.2032973328e+00
1.2033780816e+00
1.2034551209e+00
1.2035282835e+00
1.2035974516e+00
1.2036625544e+00
1.2037235643e+00
1.2037804944e+00
1.2038333933e+00
1.2038823419e+00
1.2039274487e+00
1.2039688464e+00
1.2040066868e+00
1.2040411378e+00
1.2040723790e+00
1.2041005986e+00
1.2041259896e+00
1.2041487479e+00
1.2041690685e+00
1.2041871440e+00
1.2042031626e+00
1.2042173060e+00
1.2042297485e+00
1.2042406560e+00
1.2042501848e+00
1.2042584817e+00
1.2042656832e+00
1.2042719157e+00
1.2042772953e+00
1.2042819284e+00
1.2042859117e+00
1.2042893326e+00
1.2042922700e+00
1.2042947946e+00
1.2042969696e+00
1.2042988509e+00
1.2043004883e+00
1.2043019256e+00
1.2043032013e+00
1.2043043492e+00
1.2043053986e+00
1.2043063751e+00
1.2043073008e+00
1.2043081948e+00
1.2043090732e+00
1.2043099497e+00
1.2043108358e+00
1.2043117408e+00
1.2043126722e+00
1.2043136356e+00
1.2043146350e+00
1.2043156728e+00
1.2043167499e+00
1.2043178658e+00
1.2043190185e+00
1.2043202048e+00
1.2043214201e+00
1.2043226585e+00
1.2043239133e+00
1.2043251763e+00
1.2043264385e+00
1.2043276901e+00
1.2043289204e+00
1.2043301181e+00
1.2043312717e+00
1.2043323693e+00
1.2043333995e+00
1.2043343514e+00
1.2043352152e+00
1.2043359836e+00
1.2043366521e+00
1.2043372209e+00
1.2043376964e+00
1.2043380922e+00
1.2043455553e+00
1.2015046746e+00
1.2015149942e+00
1.2015324728e+00
1.2015586668e+00
1.2015933266e+00
1.2016361251e+00
1.2016866619e+00
1.2017444708e+00
1.2018090254e+00
1.2018797492e+00
1.2019560214e+00
1.2020371890e+00
1.2021225730e+00
1.2022114803e+00
1.2023032107e+00
1.2023970681e+00
1.2024923666e+00
1.2025884410e+00
1.2026846515e+00
1.2027803928e+00
1.2028750974e+00
1.2029682424e+00
1.2030593514e+00
1.2031479991e+00
1.2032338114e+00
1.2033164681e+00
1.2033957013e+00
1.2034712960e+00
1.2035430877e+00
1.2036109609e+00
1.2036748455e+00
1.2037347150e+00
1.2037905812e+00
1.2038424922e+00
1.2038905268e+00
1.2039347918e+00
1.2039754168e+00
1.2040125509e+00
1.2040463585e+00
1.2040770159e+00
1.2041047074e+00
1.2041296228e+00
1.2041519537e+00
1.2041718919e+00
1.2041896261e+00
1.2042053409e+00
1.2042192148e+00
1.2042314189e+00
1.2042421158e+00
1.2042514592e+00
1.2042595931e+00
1.2042666514e+00
1.2042727583e+00
1.2042780279e+00
1.2042825646e+00
1.2042864635e+00
1.2042898105e+00
1.2042926831e+00
1.2042951508e+00
1.2042972756e+00
1.2042991128e+00
1.2043007111e+00
1.2043021138e+00
1.2043033588e+00
1.2043044791e+00
1.2043055040e+00
1.2043064583e+00
1.2043073641e+00
1.2043082399e+00
1.2043091018e+00
1.2043099632e+00
1.2043108353e+00
1.2043117273e+00
1.2043126466e+00
1.2043135984e+00
1.2043145869e+00
1.2043156141e+00
1.2043166810e+00
1.2043177870e+00
1.2043189299e+00
1.2043201067e+00
1.2043213127e+00
1.2043225424e+00
1.2043237889e+00
1.2043250445e+00
1.2043263005e+00
1.2043275476e+00
1.2043287754e+00
1.2043299737e+00
1.2043311314e+00
1.2043322378e+00
1.2043332823e+00
1.2043342553e+00
1.2043351482e+00
1.2043359543e+00
1.2043366698e+00
1.2043372940e+00
1.2043378307e+00
1.2043382880e+00
1.2043459172e+00
1.2015663563e+00
1.2015766025e+00
1.2015936939e+00
1.2016193082e+00
1.2016532012e+00
1.2016950524e+00
1.2017444708e+00
1.2018009998e+00
1.2018641259e+00
1.2019332842e+00
1.2020078693e+00
1.2020872414e+00
1.2021707379e+00
1.2022576802e+00
1.2023473847e+00
1.2024391698e+00
1.2025323660e+00
1.2026263216e+00
1.2027204123e+00
1.2028140449e+00
1.2029066657e+00
1.2029977621e+00
1.2030868691e+00
1.2031735700e+00
1.2032574996e+00
1.2033383437e+00
1.2034158412e+00
1.2034897808e+00
1.2035600021e+00
1.2036263914e+00
1.2036888806e+00
1.2037474428e+00
1.2038020903e+00
1.2038528691e+00
1.2038998567e+00
1.2039431570e+00
1.2039828969e+00
1.2040192219e+00
1.2040522927e+00
1.2040822816e+00
1.2041093689e+00
1.2041337400e+00
1.2041555824e+00
1.2041750834e+00
1.2041924279e+00
1.2042077962e+00
1.2042213630e+00
1.2042332956e+00
1.2042437531e+00
1.2042528859e+00
1.2042608349e+00
1.2042677313e+00
1.2042736965e+00
1.2042788423e+00
1.2042832709e+00
1.2042870753e+00
1.2042903399e+00
1.2042931404e+00
1.2042955451e+00
1.2042976148e+00
1.2042994035e+00
1.2043009593e+00
1.2043023244e+00
1.2043035361e+00
1.2043046269e+00
1.2043056254e+00
1.2043065563e+00
1.2043074409e+00
1.2043082977e+00
1.2043091422e+00
1.2043099879e+00
1.2043108455e+00
1.2043117242e+00
1.2043126310e+00
1.2043135712e+00
1.2043145486e+00
1.2043155654e+00
1.2043166222e+00
1.2043177184e+00
1.2043188520e+00
1.2043200197e+00
1.2043212172e+00
1.2043224387e+00
1.2043236778e+00
1.2043249270e+00
1.2043261779e+00
1.2043274214e+00
1.2043286479e+00
1.2043298476e+00
1.2043310101e+00
1.2043321255e+00
1.2043331840e+00
1.2043341766e+00
1.2043350953e+00
1.2043359339e+00
1.2043366881e+00
1.2043373562e+00
1.2043379393e+00
1.2043384411e+00
1.2043461988e+00
1.2016352574e+00
1.2016454034e+00
1.2016620614e+00
1.2016870276e+00
1.2017200633e+00
1.2017608565e+00
1.2018090254e+00
1.2018641259e+00
1.2019256563e+00
1.2019930676e+00
1.2020657683e+00
1.2021431364e+00
1.2022245250e+00
1.2023092738e+00
1.2023967155e+00
1.2024861871e+00
1.2025770346e+00
1.2026686244e+00
1.2027603465e+00
1.2028516241e+00
1.2029419160e+00
1.2030307240e+00
1.2031175935e+00
1.2032021192e+00
1.2032839441e+00
1.2033627627e+00
1.2034383194e+00
1.2035104091e+00
1.2035788744e+00
1.2036436049e+00
1.2037045335e+00
1.2037616344e+00
1.2038149187e+00
1.2038644318e+00
1.2039102486e+00
1.2039524704e+00
1.2039912206e+00
1.2040266411e+00
1.2040588884e+00
1.2040881303e+00
1.2041145425e+00
1.2041383057e+00
1.2041596026e+00
1.2041786159e+00
1.2041955256e+00
1.2042105076e+00
1.2042237322e+00
1.2042353626e+00
1.2042455540e+00
1.2042544529e+00
1.2042621969e+00
1.2042689139e+00
1.2042747224e+00
1.2042797316e+00
1.2042840411e+00
1.2042877418e+00
1.2042909161e+00
1.2042936380e+00
1.2042959741e+00
1.2042979839e+00
1.2042997203e+00
1.2043012302e+00
1.2043025550e+00
1.2043037311e+00
1.2043047905e+00
1.2043057612e+00
1.2043066672e+00
1.2043075296e+00
1.2043083664e+00
1.2043091930e+00
1.2043100222e+00
1.2043108650e+00
1.2043117299e+00
1.2043126241e+00
1.2043135525e+00
1.2043145189e+00
1.2043155252e+00
1.2043165721e+00
1.2043176588e+00
1.2043187834e+00
1.2043199426e+00
1.2043211319e+00
1.2043223460e+00
1.2043235785e+00
1.2043248220e+00
1.2043260685e+00
1.2043273093e+00
1.2043285353e+00
1.2043297369e+00
1.2043309046e+00
1.2043320288e+00
1.2043331003e+00
1.2043341105e+00
1.2043350519e+00
1.2043359181e+00
1.2043367042e+00
1.2043374072e+00
1.2043380261e+00
1.2043385612e+00
1.2043464219e+00
1.2017107578e+00
1.2017207792e+00
1.2017369624e+00
1.2017612181e+00
1.2017933148e+00
1.2018329486e+00
1.2018797492e+00
1.2019332842e+00
1.2019930676e+00
1.2020585646e+00
1.2021292021e+00
1.2022043745e+00
1.2022834546e+00
1.2023657999e+00
1.2024507634e+00
1.2025376996e+00
1.2026259747e+00
1.2027149714e+00
1.2028040988e+00
1.2028927949e+00
1.2029805353e+00
1.2030668344e+00
1.2031512519e+00
1.2032333926e+00
1.2033129106e+00
1.2033895081e+00
1.2034629374e+00
1.2035329982e+00
1.2035995382e+00
1.2036624493e+00
1.2037216667e+00
1.2037771647e+00
1.2038289543e+00
1.2038770790e+00
1.2039216118e+00
1.2039626507e+00
1.2040003157e+00
1.2040347443e+00
1.2040660887e+00
1.2040945116e+00
1.2041201839e+00
1.2041432809e+00
1.2041639802e+00
1.2041824592e+00
1.2041988929e+00
1.2042134522e+00
1.2042263027e+00
1.2042376027e+00
1.2042475034e+00
1.2042561472e+00
1.2042636677e+00
1.2042701894e+00
1.2042758276e+00
1.2042806884e+00
1.2042848689e+00
1.2042884574e+00
1.2042915342e+00
1.2042941714e+00
1.2042964338e+00
1.2042983795e+00
1.2043000600e+00
1.2043015210e+00
1.2043028030e+00
1.2043039416e+00
1.2043049679e+00
1.2043059092e+00
1.2043067892e+00
1.2043076284e+00
1.2043084445e+00
1.2043092524e+00
1.2043100648e+00
1.2043108922e+00
1.2043117432e+00
1.2043126244e+00
1.2043135410e+00
1.2043144962e+00
1.2043154921e+00
1.2043165293e+00
1.2043176068e+00
1.2043187227e+00
1.2043198737e+00
1.2043210555e+00
1.2043222627e+00
1.2043234891e+00
1.2043247277e+00
1.2043259705e+00
1.2043272092e+00
1.2043284351e+00
1.2043296391e+00
1.2043308118e+00
1.2043319444e+00
1.2043330278e+00
1.2043340538e+00
1.2043350149e+00
1.2043359044e+00
1.2043367169e+00
1.2043374482e+00
1.2043380954e+00
1.2043386564e+00
1.2043466025e+00
1.2017921922e+00
1.2018020674e+00
1.2018177388e+00
1.2018412289e+00
1.2018723127e+00
1.2019106967e+00
1.2019560214e+00
1.2020078693e+00
1.2020657683e+00
1.2021292021e+00
1.2021976143e+00
1.2022704199e+00
1.2023470103e+00
1.2024267645e+00
1.2025090549e+00
1.2025932576e+00
1.2026787575e+00
1.2027649584e+00
1.2028512862e+00
1.2029371984e+00
1.2030221856e+00
1.2031057788e+00
1.2031875502e+00
1.2032671182e+00
1.2033441465e+00
1.2034183477e+00
1.2034894807e+00
1.2035573524e+00
1.2036218141e+00
1.2036827618e+00
1.2037401320e+00
1.2037939000e+00
1.2038440759e+00
1.2038907021e+00
1.2039338487e+00
1.2039736109e+00
1.2040101044e+00
1.2040434625e+00
1.2040738323e+00
1.2041013716e+00
1.2041262454e+00
1.2041486237e+00
1.2041686784e+00
1.2041865814e+00
1.2042025019e+00
1.2042166058e+00
1.2042290531e+00
1.2042399977e+00
1.2042495855e+00
1.2042579549e+00
1.2042652353e+00
1.2042715474e+00
1.2042770030e+00
1.2042817049e+00
1.2042857473e+00
1.2042892161e+00
1.2042921890e+00
1.2042947360e+00
1.2042969203e+00
1.2042987980e+00
1.2043004194e+00
1.2043018289e+00
1.2043030659e+00
1.2043041651e+00
1.2043051567e+00
1.2043060675e+00
1.2043069204e+00
1.2043077356e+00
1.2043085302e+00
1.2043093189e+00
1.2043101140e+00
1.2043109257e+00
1.2043117624e+00
1.2043126306e+00
1.2043135351e+00
1.2043144792e+00
1.2043154648e+00
1.2043164923e+00
1.2043175609e+00
1.2043186684e+00
1.2043198116e+00
1.2043209863e+00
1.2043221871e+00
1.2043234081e+00
1.2043246422e+00
1.2043258819e+00
1.2043271190e+00
1.2043283452e+00
1.2043295516e+00
1.2043307294e+00
1.2043318697e+00
1.2043329639e+00
1.2043340040e+00
1.2043349821e+00
1.2043358916e+00
1.2043367262e+00
1.2043374809e+00
1.2043381511e+00
1.2043387331e+00
1.2043467528e+00
1.2018788598e+00
1.2018885698e+00
1.2019036973e+00
1.2019263728e+00
1.2019563796e+00
1.2019934337e+00
1.2020371890e+00
1.2020872414e+00
1.2021431364e+00
1.2022043745e+00
1.2022704199e+00
1.2023407066e+00
1.2024146486e+00
1.2024916453e+00
1.2025710920e+00
1.2026523852e+00
1.2027349326e+00
1.2028181572e+00
1.2029015064e+00
1.2029844548e+00
1.2030665122e+00
1.2031472244e+00
1.2032261796e+00
1.2033030081e+00
1.2033773864e+00
1.2034490357e+00
1.2035177243e+00
1.2035832644e+00
1.2036455135e+00
1.2037043701e+00
1.2037597733e+00
1.2038116986e+00
1.2038601562e+00
1.2039051863e+00
1.2039468568e+00
1.2039852591e+00
1.2040205052e+00
1.2040527232e+00
1.2040820553e+00
1.2041086534e+00
1.2041326772e+00
1.2041542903e+00
1.2041736590e+00
1.2041909487e+00
1.2042063234e+00
1.2042199427e+00
1.2042319615e+00
1.2042425281e+00
1.2042517837e+00
1.2042598617e+00
1.2042668874e+00
1.2042729772e+00
1.2042782393e+00
1.2042827730e+00
1.2042866695e+00
1.2042900118e+00
1.2042928751e+00
1.2042953273e+00
1.2042974293e+00
1.2042992357e+00
1.2043007952e+00
1.2043021509e+00
1.2043033410e+00
1.2043043991e+00
1.2043053548e+00
1.2043062339e+00
1.2043070589e+00
1.2043078493e+00
1.2043086218e+00
1.2043093907e+00
1.2043101681e+00
1.2043109638e+00