# vtk DataFile Version 2.0
Blank
ASCII
DATASET STRUCTURED_GRID
DIMENSIONS 101 101 2
POINTS 20402 float
0.0000000000e+00 0.0000000000e+00 0.0000000000e+00
1.0000000000e-02 0.0000000000e+00 0.0000000000e+00
2.0000000000e-02 0.0000000000e+00 0.0000000000e+00
3.0000000000e-02 0.0000000000e+00 0.0000000000e+00
4.0000000000e-02 0.0000000000e+00 0.0000000000e+00
5.0000000000e-02 0.0000000000e+00 0.0000000000e+00
6.0000000000e-02 0.0000000000e+00 0.0000000000e+00
7.0000000000e-02 0.0000000000e+00 0.0000000000e+00
8.0000000000e-02 0.0000000000e+00 0.0000000000e+00
9.0000000000e-02 0.0000000000e+00 0.0000000000e+00
1.0000000000e-01 0.0000000000e+00 0.0000000000e+00
1.1000000000e-01 0.0000000000e+00 0.0000000000e+00
1.2000000000e-01 0.0000000000e+00 0.0000000000e+00
1.3000000000e-01 0.0000000000e+00 0.0000000000e+00
1.4000000000e-01 0.0000000000e+00 0.0000000000e+00
1.5000000000e-01 0.0000000000e+00 0.0000000000e+00
1.6000000000e-01 0.0000000000e+00 0.0000000000e+00
1.7000000000e-01 0.0000000000e+00 0.0000000000e+00
1.8000000000e-01 0.0000000000e+00 0.0000000000e+00
1.9000000000e-01 0.0000000000e+00 0.0000000000e+00
2.0000000000e-01 0.0000000000e+00 0.0000000000e+00
2.1000000000e-01 0.0000000000e+00 0.0000000000e+00
2.2000000000e-01 0.0000000000e+00 0.0000000000e+00
2.3000000000e-01 0.0000000000e+00 0.0000000000e+00
2.4000000000e-01 0.0000000000e+00 0.0000000000e+00
2.5000000000e-01 0.0000000000e+00 0.0000000000e+00
2.6000000000e-01 0.0000000000e+00 0.0000000000e+00
2.7000000000e-01 0.0000000000e+00 0.0000000000e+00
2.8000000000e-01 0.0000000000e+00 0.0000000000e+00
2.9000000000e-01 0.0000000000e+00 0.0000000000e+00
3.0000000000e-01 0.0000000000e+00 0.0000000000e+00
3.1000000000e-01 0.0000000000e+00 0.0000000000e+00
3.2000000000e-01 0.0000000000e+00 0.0000000000e+00
3.3000000000e-01 0.0000000000e+00 0.0000000000e+00
3.4000000000e-01 0.0000000000e+00 0.0000000000e+00
3.5000000000e-01 0.0000000000e+00 0.0000000000e+00
3.6000000000e-01 0.0000000000e+00 0.0000000000e+00
3.7000000000e-01 0.0000000000e+00 0.0000000000e+00
3.8000000000e-01 0.0000000000e+00 0.0000000000e+00
3.9000000000e-01 0.0000000000e+00 0.0000000000e+00
4.0000000000e-01 0.0000000000e+00 0.0000000000e+00
4.1000000000e-01 0.0000000000e+00 0.0000000000e+00
4.2000000000e-01 0.0000000000e+00 0.0000000000e+00
4.3000000000e-01 0.0000000000e+00 0.0000000000e+00
4.4000000000e-01 0.0000000000e+00 0.0000000000e+00
4.5000000000e-01 0.0000000000e+00 0.0000000000e+00
4.6000000000e-01 0.0000000000e+00 0.0000000000e+00
4.7000000000e-01 0.0000000000e+00 0.0000000000e+00
4.8000000000e-01 0.0000000000e+00 0.0000000000e+00
4.9000000000e-01 0.0000000000e+00 0.0000000000e+00
5.0000000000e-01 0.0000000000e+00 0.0000000000e+00
5.1000000000e-01 0.0000000000e+00 0.0000000000e+00
5.2000000000e-01 0.0000000000e+00 0.0000000000e+00
5.3000000000e-01 0.0000000000e+00 0.0000000000e+00
5.4000000000e-01 0.0000000000e+00 0.0000000000e+00
5.5000000000e-01 0.0000000000e+00 0.0000000000e+00
5.6000000000e-01 0.0000000000e+00 0.0000000000e+00
5.7000000000e-01 0.0000000000e+00 0.0000000000e+00
5.8000000000e-01 0.0000000000e+00 0.0000000000e+00
5.9000000000e-01 0.0000000000e+00 0.0000000000e+00
6.0000000000e-01 0.0000000000e+00 0.0000000000e+00
6.1000000000e-01 0.0000000000e+00 0.0000000000e+00
6.2000000000e-01 0.0000000000e+00 0.0000000000e+00
6.3000000000e-01 0.0000000000e+00 0.0000000000e+00
6.4000000000e-01 0.0000000000e+00 0.0000000000e+00
6.5000000000e-01 0.0000000000e+00 0.0000000000e+00
6.6000000000e-01 0.0000000000e+00 0.0000000000e+00
6.7000000000e-01 0.0000000000e+00 0.0000000000e+00
6.8000000000e-01 0.0000000000e+00 0.0000000000e+00
6.9000000000e-01 0.0000000000e+00 0.0000000000e+00
7.0000000000e-01 0.0000000000e+00 0.0000000000e+00
7.1000000000e-01 0.0000000000e+00 0.0000000000e+00
7.2000000000e-01 0.0000000000e+00 0.0000000000e+00
7.3000000000e-01 0.0000000000e+00 0.0000000000e+00
7.4000000000e-01 0.0000000000e+00 0.0000000000e+00
7.5000000000e-01 0.0000000000e+00 0.0000000000e+00
7.6000000000e-01 0.0000000000e+00 0.0000000000e+00
7.7000000000e-01 0.0000000000e+00 0.0000000000e+00
7.8000000000e-01 0.0000000000e+00 0.0000000000e+00
7.9000000000e-01 0.0000000000e+00 0.0000000000e+00
8.0000000000e-01 0.0000000000e+00 0.0000000000e+00
8.1000000000e-01 0.0000000000e+00 0.0000000000e+00
8.2000000000e-01 0.0000000000e+00 0.0000000000e+00
8.3000000000e-01 0.0000000000e+00 0.0000000000e+00
8.4000000000e-01 0.0000000000e+00 0.0000000000e+00
8.5000000000e-01 0.0000000000e+00 0.0000000000e+00
8.6000000000e-01 0.0000000000e+00 0.0000000000e+00
8.7000000000e-01 0.0000000000e+00 0.0000000000e+00
8.8000000000e-01 0.0000000000e+00 0.0000000000e+00
8.9000000000e-01 0.0000000000e+00 0.0000000000e+00
9.0000000000e-01 0.0000000000e+00 0.0000000000e+00
9.1000000000e-01 0.0000000000e+00 0.0000000000e+00
9.2000000000e-01 0.0000000000e+00 0.0000000000e+00
9.3000000000e-01 0.0000000000e+00 0.0000000000e+00
9.4000000000e-01 0.0000000000e+00 0.0000000000e+00
9.5000000000e-01 0.0000000000e+00 0.0000000000e+00
9.6000000000e-01 0.0000000000e+00 0.0000000000e+00
9.7000000000e-01 0.0000000000e+00 0.0000000000e+00
9.8000000000e-01 0.0000000000e+00 0.0000000000e+00
9.9000000000e-01 0.0000000000e+00 0.0000000000e+00
1.0000000000e+00 0.0000000000e+00 0.0000000000e+00
0.0000000000e+00 1.0000000000e-02 0.0000000000e+00
1.0000000000e-02 1.0000000000e-02 0.0000000000e+00
2.0000000000e-02 1.0000000000e-02 0.0000000000e+00
3.0000000000e-02 1.0000000000e-02 0.0000000000e+00
4.0000000000e-02 1.0000000000e-02 0.0000000000e+00
5.0000000000e-02 1.0000000000e-02 0.0000000000e+00
6.0000000000e-02 1.0000000000e-02 0.0000000000e+00
7.0000000000e-02 1.0000000000e-02 0.0000000000e+00
8.0000000000e-02 1.0000000000e-02 0.0000000000e+00
9.0000000000e-02 1.0000000000e-02 0.0000000000e+00
1.0000000000e-01 1.0000000000e-02 0.0000000000e+00
1.1000000000e-01 1.0000000000e-02 0.0000000000e+00
1.2000000000e-01 1.0000000000e-02 0.0000000000e+00
1.3000000000e-01 1.0000000000e-02 0.0000000000e+00
1.4000000000e-01 1.0000000000e-02 0.0000000000e+00
1.5000000000e-01 1.0000000000e-02 0.0000000000e+00
1.6000000000e-01 1.0000000000e-02 0.0000000000e+00
1.7000000000e-01 1.0000000000e-02 0.0000000000e+00
1.8000000000e-01 1.0000000000e-02 0.0000000000e+00
1.9000000000e-01 1.0000000000e-02 0.0000000000e+00
2.0000000000e-01 1.0000000000e-02 0.0000000000e+00
2.1000000000e-01 1.0000000000e-02 0.0000000000e+00
2.2000000000e-01 1.0000000000e-02 0.0000000000e+00
2.3000000000e-01 1.0000000000e-02 0.0000000000e+00
2.4000000000e-01 1.0000000000e-02 0.0000000000e+00
2.5000000000e-01 1.0000000000e-02 0.0000000000e+00
2.6000000000e-01 1.0000000000e-02 0.0000000000e+00
2.7000000000e-01 1.0000000000e-02 0.0000000000e+00
2.8000000000e-01 1.0000000000e-02 0.0000000000e+00
2.9000000000e-01 1.0000000000e-02 0.0000000000e+00
3.0000000000e-01 1.0000000000e-02 0.0000000000e+00
3.1000000000e-01 1.0000000000e-02 0.0000000000e+00
3.2000000000e-01 1.0000000000e-02 0.0000000000e+00
3.3000000000e-01 1.0000000000e-02 0.0000000000e+00
3.4000000000e-01 1.0000000000e-02 0.0000000000e+00
3.5000000000e-01 1.0000000000e-02 0.0000000000e+00
3.6000000000e-01 1.0000000000e-02 0.0000000000e+00
3.7000000000e-01 1.0000000000e-02 0.0000000000e+00
3.8000000000e-01 1.0000000000e-02 0.0000000000e+00
3.9000000000e-01 1.0000000000e-02 0.0000000000e+00
4.0000000000e-01 1.0000000000e-02 0.0000000000e+00
4.1000000000e-01 1.0000000000e-02 0.0000000000e+00
4.2000000000e-01 1.0000000000e-02 0.0000000000e+00
4.3000000000e-01 1.0000000000e-02 0.0000000000e+00
4.4000000000e-01 1.0000000000e-02 0.0000000000e+00
4.5000000000e-01 1.0000000000e-02 0.0000000000e+00
4.6000000000e-01 1.0000000000e-02 0.0000000000e+00
4.7000000000e-01 1.0000000000e-02 0.0000000000e+00
4.8000000000e-01 1.0000000000e-02 0.0000000000e+00
4.9000000000e-01 1.0000000000e-02 0.0000000000e+00
5.0000000000e-01 1.0000000000e-02 0.0000000000e+00
5.1000000000e-01 1.0000000000e-02 0.0000000000e+00
5.2000000000e-01 1.0000000000e-02 0.0000000000e+00
5.3000000000e-01 1.0000000000e-02 0.0000000000e+00
5.4000000000e-01 1.0000000000e-02 0.0000000000e+00
5.5000000000e-01 1.0000000000e-02 0.0000000000e+00
5.6000000000e-01 1.0000000000e-02 0.0000000000e+00
5.7000000000e-01 1.0000000000e-02 0.0000000000e+00
5.8000000000e-01 1.0000000000e-02 0.0000000000e+00
5.9000000000e-01 1.0000000000e-02 0.0000000000e+00
6.0000000000e-01 1.0000000000e-02 0.0000000000e+00
6.1000000000e-01 1.0000000000e-02 0.0000000000e+00
6.2000000000e-01 1.0000000000e-02 0.0000000000e+00
6.3000000000e-01 1.0000000000e-02 0.0000000000e+00
6.4000000000e-01 1.0000000000e-02 0.0000000000e+00
6.5000000000e-01 1.0000000000e-02 0.0000000000e+00
6.6000000000e-01 1.0000000000e-02 0.0000000000e+00
6.7000000000e-01 1.0000000000e-02 0.0000000000e+00
6.8000000000e-01 1.0000000000e-02 0.0000000000e+00
6.9000000000e-01 1.0000000000e-02 0.0000000000e+00
7.0000000000e-01 1.0000000000e-02 0.0000000000e+00
7.1000000000e-01 1.0000000000e-02 0.0000000000e+00
7.2000000000e-01 1.0000000000e-02 0.0000000000e+00
7.3000000000e-01 1.0000000000e-02 0.0000000000e+00
7.4000000000e-01 1.0000000000e-02 0.0000000000e+00
7.5000000000e-01 1.0000000000e-02 0.0000000000e+00
7.6000000000e-01 1.0000000000e-02 0.0000000000e+00
7.7000000000e-01 1.0000000000e-02 0.0000000000e+00
7.8000000000e-01 1.0000000000e-02 0.0000000000e+00
7.9000000000e-01 1.0000000000e-02 0.0000000000e+00
8.0000000000e-01 1.0000000000e-02 0.0000000000e+00
8.1000000000e-01 1.0000000000e-02 0.0000000000e+00
8.2000000000e-01 1.0000000000e-02 0.0000000000e+00
8.3000000000e-01 1.0000000000e-02 0.0000000000e+00
8.4000000000e-01 1.0000000000e-02 0.0000000000e+00
8.5000000000e-01 1.0000000000e-02 0.0000000000e+00
8.6000000000e-01 1.0000000000e-02 0.0000000000e+00
8.7000000000e-01 1.0000000000e-02 0.0000000000e+00
8.8000000000e-01 1.0000000000e-02 0.0000000000e+00
8.9000000000e-01 1.0000000000e-02 0.0000000000e+00
9.0000000000e-01 1.0000000000e-02 0.0000000000e+00
9.1000000000e-01 1.0000000000e-02 0.0000000000e+00
9.2000000000e-01 1.0000000000e-02 0.0000000000e+00
[...]
CELL_DATA 10000

SCALARS massDensity float
LOOKUP_TABLE default
1.2015087436e+00
1.2015204906e+00
1.2015360507e+00
1.2015599205e+00
1.2015918290e+00
1.2016314462e+00
1.2016783896e+00
1.2017322284e+00
1.2017924864e+00
1.2018586466e+00
1.2019301567e+00
1.2020064355e+00
1.2020868796e+00
1.2021708708e+00
1.2022577835e+00
1.2023469918e+00
1.2024378766e+00
1.2025298328e+00
1.2026222750e+00
1.2027146435e+00
1.2028064094e+00
1.2028970790e+00
1.2029861973e+00
1.2030733510e+00
1.2031581707e+00
1.2032403319e+00
1.2033195560e+00
1.2033956101e+00
1.2034683060e+00
1.2035374993e+00
1.2036030874e+00
1.2036650071e+00
1.2037232321e+00
1.2037777700e+00
1.2038286592e+00
1.2038759656e+00
1.2039197790e+00
1.2039602100e+00
1.2039973866e+00
1.2040314507e+00
1.2040625554e+00
1.2040908619e+00
1.2041165365e+00
1.2041397486e+00
1.2041606682e+00
1.2041794639e+00
1.2041963011e+00
1.2042113409e+00
1.2042247383e+00
1.2042366416e+00
1.2042471915e+00
1.2042565205e+00
1.2042647525e+00
1.2042720025e+00
1.2042783767e+00
1.2042839725e+00
1.2042888784e+00
1.2042931749e+00
1.2042969341e+00
1.2043002206e+00
1.2043030916e+00
1.2043055980e+00
1.2043077841e+00
1.2043096888e+00
1.2043113460e+00
1.2043127848e+00
1.2043140303e+00
1.2043151042e+00
1.2043160250e+00
1.2043168089e+00
1.2043174695e+00
1.2043180190e+00
1.2043184678e+00
1.2043188256e+00
1.2043191010e+00
1.2043193018e+00
1.2043194357e+00
1.2043195098e+00
1.2043195313e+00
1.2043195071e+00
1.2043194440e+00
1.2043193487e+00
1.2043192281e+00
1.2043190887e+00
1.2043189368e+00
1.2043187786e+00
1.2043186198e+00
1.2043184657e+00
1.2043183212e+00
1.2043181903e+00
1.2043180768e+00
1.2043179836e+00
1.2043179133e+00
1.2043178680e+00
1.2043178499e+00
1.2043178608e+00
1.2043179028e+00
1.2043179775e+00
1.2043180851e+00
1.2043185434e+00
1.2015204906e+00
1.2015331415e+00
1.2015491357e+00
1.2015732467e+00
1.2016052600e+00
1.2016448835e+00
1.2016917602e+00
1.2017454756e+00
1.2018055651e+00
1.2018715199e+00
1.2019427940e+00
1.2020188109e+00
1.2020989715e+00
1.2021826612e+00
1.2022692576e+00
1.2023581375e+00
1.2024486849e+00
1.2025402967e+00
1.2026323901e+00
1.2027244074e+00
1.2028158217e+00
1.2029061410e+00
1.2029949119e+00
1.2030817225e+00
1.2031662047e+00
1.2032480350e+00
1.2033269358e+00
1.2034026748e+00
1.2034750646e+00
1.2035439613e+00
1.2036092626e+00
1.2036709055e+00
1.2037288639e+00
1.2037831456e+00
1.2038337888e+00
1.2038808592e+00
1.2039244466e+00
1.2039646614e+00
1.2040016311e+00
1.2040354976e+00
1.2040664133e+00
1.2040945390e+00
1.2041200407e+00
1.2041430871e+00
1.2041638478e+00
1.2041824907e+00
1.2041991808e+00
1.2042140783e+00
1.2042273377e+00
1.2042391068e+00
1.2042495255e+00
1.2042587257e+00
1.2042668308e+00
1.2042739552e+00
1.2042802048e+00
1.2042856763e+00
1.2042904582e+00
1.2042946306e+00
1.2042982655e+00
1.2043014274e+00
1.2043041739e+00
1.2043065559e+00
1.2043086181e+00
1.2043104000e+00
1.2043119358e+00
1.2043132555e+00
1.2043143848e+00
1.2043153462e+00
1.2043161591e+00
1.2043168402e+00
1.2043174041e+00
1.2043178637e+00
1.2043182300e+00
1.2043185132e+00
1.2043187222e+00
1.2043188653e+00
1.2043189500e+00
1.2043189835e+00
1.2043189726e+00
1.2043189238e+00
1.2043188433e+00
1.2043187371e+00
1.2043186110e+00
1.2043184706e+00
1.2043183213e+00
1.2043181679e+00
1.2043180154e+00
1.2043178678e+00
1.2043177293e+00
1.2043176033e+00
1.2043174930e+00
1.2043174011e+00
1.2043173302e+00
1.2043172827e+00
1.2043172607e+00
1.2043172670e+00
1.2043173044e+00
1.2043173765e+00
1.2043174882e+00
1.2043179114e+00
1.2015360507e+00
1.2015491357e+00
1.2015652267e+00
1.2015893232e+00
1.2016212310e+00
1.2016606747e+00
1.2017073095e+00
1.2017607304e+00
1.2018204796e+00
1.2018860544e+00
1.2019569135e+00
1.2020324853e+00
1.2021121746e+00
1.2021953712e+00
1.2022814562e+00
1.2023698109e+00
1.2024598223e+00
1.2025508916e+00
1.2026424389e+00
1.2027339103e+00
1.2028247816e+00
1.2029145641e+00
1.2030028068e+00
1.2030891004e+00
1.2031730789e+00
1.2032544209e+00
1.2033328503e+00
1.2034081364e+00
1.2034800929e+00
1.2035485769e+00
1.2036134866e+00
1.2036747597e+00
1.2037323703e+00
1.2037863261e+00
1.2038366654e+00
1.2038834537e+00
1.2039267802e+00
1.2039667549e+00
1.2040035047e+00
1.2040371706e+00
1.2040679045e+00
1.2040958662e+00
1.2041212208e+00
1.2041441361e+00
1.2041647806e+00
1.2041833214e+00
1.2041999224e+00
1.2042147428e+00
1.2042279362e+00
1.2042396491e+00
1.2042500207e+00
1.2042591817e+00
1.2042672547e+00
1.2042743530e+00
1.2042805816e+00
1.2042860365e+00
1.2042908052e+00
1.2042949668e+00
1.2042985929e+00
1.2043017472e+00
1.2043044866e+00
1.2043068614e+00
1.2043089159e+00
1.2043106892e+00
1.2043122151e+00
1.2043135232e+00
1.2043146394e+00
1.2043155857e+00
1.2043163816e+00
1.2043170440e+00
1.2043175875e+00
1.2043180249e+00
1.2043183678e+00
1.2043186263e+00
1.2043188097e+00
1.2043189265e+00
1.2043189845e+00
1.2043189913e+00
1.2043189537e+00
1.2043188785e+00
1.2043187722e+00
1.2043186409e+00
1.2043184905e+00
1.2043183268e+00
1.2043181552e+00
1.2043179807e+00
1.2043178082e+00
1.2043176420e+00
1.2043174862e+00
1.2043173445e+00
1.2043172202e+00
1.2043171163e+00
1.2043170355e+00
1.2043169806e+00
1.2043169542e+00
1.2043169589e+00
1.2043169981e+00
1.2043170756e+00
1.2043171963e+00
1.2043175508e+00
1.2015599205e+00
1.2015732467e+00
1.2015893232e+00
1.2016133055e+00
1.2016450040e+00
1.2016841511e+00
1.2017304105e+00
1.2017833848e+00
1.2018426239e+00
1.2019076313e+00
1.2019778726e+00
1.2020527819e+00
1.2021317705e+00
1.2022142335e+00
1.2022995585e+00
1.2023871318e+00
1.2024763467e+00
1.2025666091e+00
1.2026573450e+00
1.2027480047e+00
1.2028380694e+00
1.2029270541e+00
1.2030145123e+00
1.2031000382e+00
1.2031832691e+00
1.2032638863e+00
1.2033416165e+00
1.2034162309e+00
1.2034875450e+00
1.2035554171e+00
1.2036197467e+00
1.2036804718e+00
1.2037375671e+00
1.2037910403e+00
1.2038409294e+00
1.2038872995e+00
1.2039302393e+00
1.2039698576e+00
1.2040062807e+00
1.2040396482e+00
1.2040701109e+00
1.2040978273e+00
1.2041229610e+00
1.2041456786e+00
1.2041661469e+00
1.2041845317e+00
1.2042009953e+00
1.2042156955e+00
1.2042287845e+00
1.2042404073e+00
1.2042507016e+00
1.2042597970e+00
1.2042678145e+00
1.2042748664e+00
1.2042810562e+00
1.2042864790e+00
1.2042912209e+00
1.2042953604e+00
1.2042989677e+00
1.2043021058e+00
1.2043048308e+00
1.2043071923e+00
1.2043092341e+00
1.2043109944e+00
1.2043125069e+00
1.2043138007e+00
1.2043149013e+00
1.2043158308e+00
1.2043166084e+00
1.2043172510e+00
1.2043177732e+00
1.2043181880e+00
1.2043185071e+00
1.2043187408e+00
1.2043188987e+00
1.2043189893e+00
1.2043190209e+00
1.2043190011e+00
1.2043189372e+00
1.2043188360e+00
1.2043187043e+00
1.2043185482e+00
1.2043183741e+00
1.2043181875e+00
1.2043179942e+00
1.2043177991e+00
1.2043176073e+00
1.2043174232e+00
1.2043172508e+00
1.2043170941e+00
1.2043169563e+00
1.2043168408e+00
1.2043167503e+00
1.2043166876e+00
1.2043166554e+00
1.2043166566e+00
1.2043166940e+00
1.2043167711e+00
1.2043168920e+00
1.2043171497e+00
1.2015918290e+00
1.2016052600e+00
1.2016212310e+00
1.2016450040e+00
1.2016763884e+00
1.2017151207e+00
1.2017608703e+00
1.2018132472e+00
1.2018718081e+00
1.2019360645e+00
1.2020054890e+00
1.2020795239e+00
1.2021575875e+00
1.2022390831e+00
1.2023234052e+00
1.2024099484e+00
1.2024981125e+00
1.2025873113e+00
1.2026769768e+00
1.2027665668e+00
1.2028555677e+00
1.2029435011e+00
1.2030299253e+00
1.2031144395e+00
1.2031966852e+00
1.2032763478e+00
1.2033531568e+00
1.2034268867e+00
1.2034973548e+00
1.2035644215e+00
1.2036279872e+00
1.2036879913e+00
1.2037444083e+00
1.2037972463e+00
1.2038465429e+00
1.2038923625e+00
1.2039347929e+00
1.2039739420e+00
1.2040099343e+00
1.2040429083e+00
1.2040730129e+00
1.2041004049e+00
1.2041252460e+00
1.2041477010e+00
1.2041679348e+00
1.2041861111e+00
1.2042023904e+00
1.2042169286e+00
1.2042298758e+00
1.2042413755e+00
1.2042515634e+00
1.2042605674e+00
1.2042685068e+00
1.2042754925e+00
1.2042816263e+00
1.2042870018e+00
1.2042917041e+00
1.2042958100e+00
1.2042993889e+00
1.2043025026e+00
1.2043052062e+00
1.2043075485e+00
1.2043095725e+00
1.2043113157e+00
1.2043128113e+00
1.2043140880e+00
1.2043151709e+00
1.2043160818e+00
1.2043168397e+00
1.2043174615e+00
1.2043179618e+00
1.2043183536e+00
1.2043186486e+00
1.2043188574e+00
1.2043189897e+00
1.2043190543e+00
1.2043190597e+00
1.2043190136e+00
1.2043189235e+00
1.2043187967e+00
1.2043186398e+00
1.2043184595e+00
1.2043182619e+00
1.2043180530e+00
1.2043178384e+00
1.2043176233e+00
1.2043174126e+00
1.2043172110e+00
1.2043170227e+00
1.2043168513e+00
1.2043167005e+00
1.2043165735e+00
1.2043164731e+00
1.2043164021e+00
1.2043163632e+00
1.2043163589e+00
1.2043163920e+00
1.2043164650e+00
1.2043165811e+00
1.2043167280e+00
1.2016314462e+00
1.2016448835e+00
1.2016606747e+00
1.2016841511e+00
1.2017151207e+00
1.2017533223e+00
1.2017984308e+00
1.2018500624e+00
1.2019077819e+00
1.2019711085e+00
1.2020395240e+00
1.2021124789e+00
1.2021894013e+00
1.2022697031e+00
1.2023527888e+00
1.2024380612e+00
1.2025249299e+00
1.2026128168e+00
1.2027011632e+00
1.2027894339e+00
1.2028771239e+00
1.2029637611e+00
1.2030489109e+00
1.2031321781e+00
1.2032132099e+00
1.2032916959e+00
1.2033673702e+00
1.2034400101e+00
1.2035094363e+00
1.2035755107e+00
1.2036381359e+00
1.2036972517e+00
1.2037528336e+00
1.2038048893e+00
1.2038534562e+00
1.2038985978e+00
1.2039404009e+00
1.2039789717e+00
1.2040144332e+00
1.2040469219e+00
1.2040765848e+00
1.2041035761e+00
1.2041280557e+00
1.2041501857e+00
1.2041701287e+00
1.2041880461e+00
1.2042040959e+00
1.2042184317e+00
1.2042312014e+00
1.2042425461e+00
1.2042525995e+00
1.2042614873e+00
1.2042693270e+00
1.2042762272e+00
1.2042822884e+00
1.2042876023e+00
1.2042922523e+00
1.2042963140e+00
1.2042998552e+00
1.2043029366e+00
1.2043056121e+00
1.2043079295e+00
1.2043099308e+00
1.2043116531e+00
1.2043131286e+00
1.2043143855e+00
1.2043154485e+00
1.2043163391e+00
1.2043170762e+00
1.2043176762e+00
1.2043181538e+00
1.2043185221e+00
1.2043187928e+00
1.2043189767e+00
1.2043190833e+00
1.2043191220e+00
1.2043191013e+00
1.2043190291e+00
1.2043189133e+00
1.2043187610e+00
1.2043185794e+00
1.2043183751e+00
1.2043181544e+00
1.2043179235e+00
1.2043176879e+00
1.2043174532e+00
1.2043172242e+00
1.2043170055e+00
1.2043168014e+00
1.2043166158e+00
1.2043164521e+00
1.2043163136e+00
1.2043162032e+00
1.2043161234e+00
1.2043160770e+00
1.2043160661e+00
1.2043160931e+00
1.2043161600e+00
1.2043162690e+00
1.2043162998e+00
1.2016783896e+00
1.2016917602e+00
1.2017073095e+00
1.2017304105e+00
1.2017608703e+00
1.2017984308e+00
1.2018427716e+00
1.2018935162e+00
1.2019502370e+00
1.2020124628e+00
1.2020796844e+00
1.2021513632e+00
1.2022269372e+00
1.2023058296e+00
1.2023874548e+00
1.2024712273e+00
1.2025565665e+00
1.2026429053e+00
1.2027296941e+00
1.2028164081e+00
1.2029025506e+00
1.2029876584e+00
1.2030713042e+00
1.2031531002e+00
1.2032326994e+00
1.2033097975e+00
1.2033841329e+00
1.2034554873e+00
1.2035236841e+00
1.2035885884e+00
1.2036501040e+00
1.2037081723e+00
1.2037627691e+00
1.2038139024e+00
1.2038616087e+00
1.2039059509e+00
1.2039470139e+00
1.2039849026e+00
1.2040197379e+00
1.2040516539e+00
1.2040807950e+00
1.2041073132e+00
1.2041313653e+00
1.2041531108e+00
1.2041727095e+00
1.2041903198e+00
1.2042060971e+00
1.2042201922e+00
1.2042327501e+00
1.2042439096e+00
1.2042538017e+00
1.2042625498e+00
1.2042702689e+00
1.2042770658e+00
1.2042830385e+00
1.2042882770e+00
1.2042928629e+00
1.2042968700e+00
1.2043003647e+00
1.2043034063e+00
1.2043060473e+00
1.2043083344e+00
1.2043103087e+00
1.2043120062e+00
1.2043134585e+00
1.2043146932e+00
1.2043157344e+00
1.2043166032e+00
1.2043173181e+00
1.2043178955e+00
1.2043183499e+00
1.2043186943e+00
1.2043189404e+00
1.2043190991e+00
1.2043191803e+00
1.2043191931e+00
1.2043191464e+00
1.2043190484e+00
1.2043189070e+00
1.2043187296e+00
1.2043185235e+00
1.2043182954e+00
1.2043180520e+00
1.2043177993e+00
1.2043175432e+00
1.2043172891e+00
1.2043170420e+00
1.2043168066e+00
1.2043165870e+00
1.2043163873e+00
1.2043162108e+00
1.2043160608e+00
1.2043159401e+00
1.2043158513e+00
1.2043157967e+00
1.2043157784e+00
1.2043157984e+00
1.2043158584e+00
1.2043159596e+00
1.2043158740e+00
1.2017322284e+00
1.2017454756e+00
1.2017607304e+00
1.2017833848e+00
1.2018132472e+00
1.2018500624e+00
1.2018935162e+00
1.2019432389e+00
1.2019988125e+00
1.2020597748e+00
1.2021256282e+00
1.2021958447e+00
1.2022698749e+00
1.2023471532e+00
1.2024271071e+00
1.2025091625e+00
1.2025927517e+00
1.2026773184e+00
1.2027623254e+00
1.2028472578e+00
1.2029316301e+00
1.2030149878e+00
1.2030969131e+00
1.2031770258e+00
1.2032549865e+00
1.2033304967e+00
1.2034033009e+00
1.2034731846e+00
1.2035399758e+00
1.2036035416e+00
1.2036637885e+00
1.2037206588e+00
1.2037741294e+00
1.2038242077e+00
1.2038709300e+00
1.2039143578e+00
1.2039545747e+00
1.2039916832e+00
1.2040258022e+00
1.2040570629e+00
1.2040856071e+00
1.2041115836e+00
1.2041351462e+00
1.2041564510e+00
1.2041756549e+00
1.2041929128e+00
1.2042083770e+00
1.2042221950e+00
1.2042345092e+00
1.2042454549e+00
1.2042551605e+00
1.2042637466e+00
1.2042713258e+00
1.2042780021e+00
1.2042838715e+00
1.2042890217e+00
1.2042935324e+00
1.2042974753e+00
1.2043009153e+00
1.2043039100e+00
1.2043065105e+00
1.2043087624e+00
1.2043107054e+00
1.2043123747e+00
1.2043138010e+00
1.2043150111e+00
1.2043160286e+00
1.2043168742e+00
1.2043175659e+00
1.2043181198e+00
1.2043185504e+00
1.2043188706e+00
1.2043190920e+00
1.2043192255e+00
1.2043192811e+00
1.2043192683e+00
1.2043191958e+00
1.2043190721e+00
1.2043189053e+00
1.2043187030e+00
1.2043184727e+00
1.2043182212e+00
1.2043179552e+00
1.2043176810e+00
1.2043174046e+00
1.2043171313e+00
1.2043168663e+00
1.2043166142e+00
1.2043163794e+00
1.2043161657e+00
1.2043159765e+00
1.2043158149e+00
1.2043156838e+00
1.2043155857e+00
1.2043155226e+00
1.2043154965e+00
1.2043155092e+00
1.2043155618e+00
1.2043156556e+00
1.2043154556e+00
1.2017924864e+00
1.2018055651e+00
1.2018204796e+00
1.2018426239e+00
1.2018718081e+00
1.2019077819e+00
1.2019502370e+00
1.2019988125e+00
1.2020530991e+00
1.2021126465e+00
1.2021769680e+00
1.2022455488e+00
1.2023178516e+00
1.2023933255e+00
1.2024714104e+00
1.2025515466e+00
1.2026331791e+00
1.2027157656e+00
1.2027987806e+00
1.2028817224e+00
1.2029641158e+00
1.2030455181e+00
1.2031255205e+00
1.2032037525e+00
1.2032798820e+00
1.2033536184e+00
1.2034247113e+00
1.2034929523e+00
1.2035581726e+00
1.2036202434e+00
1.2036790728e+00
1.2037346051e+00
1.2037868173e+00
1.2038357173e+00
1.2038813404e+00
1.2039237469e+00
1.2039630184e+00
1.2039992556e+00
1.2040325740e+00
1.2040631027e+00
1.2040909796e+00
1.2041163507e+00
1.2041393658e+00
1.2041601778e+00
1.2041789397e+00
1.2041958030e+00
1.2042109162e+00
1.2042244236e+00
1.2042364639e+00
1.2042471693e+00
1.2042566650e+00
1.2042650685e+00
1.2042724895e+00
1.2042790295e+00
1.2042847818e+00
1.2042898317e+00
1.2042942567e+00
1.2042981266e+00
1.2043015042e+00
1.2043044455e+00
1.2043070001e+00
1.2043092121e+00
1.2043111200e+00
1.2043127579e+00
1.2043141556e+00
1.2043153391e+00
1.2043163313e+00
1.2043171523e+00
1.2043178199e+00
1.2043183497e+00
1.2043187561e+00
1.2043190517e+00
1.2043192482e+00
1.2043193565e+00
1.2043193867e+00
1.2043193482e+00
1.2043192501e+00
1.2043191010e+00
1.2043189090e+00
1.2043186820e+00
1.2043184276e+00
1.2043181528e+00
1.2043178645e+00
1.2043175690e+00
1.2043172724e+00
1.2043169801e+00
1.2043166973e+00
1.2043164288e+00
1.2043161787e+00
1.2043159510e+00
1.2043157490e+00
1.2043155759e+00
1.2043154343e+00
1.2043153266e+00
1.2043152549e+00
1.2043152209e+00
1.2043152260e+00
1.2043152716e+00
1.2043153584e+00
1.2043150472e+00
1.2018586466e+00
1.2018715199e+00
1.2018860544e+00
1.2019076313e+00
1.2019360645e+00
1.2019711085e+00
1.2020124628e+00
1.2020597748e+00
1.2021126465e+00
1.2021706385e+00
1.2022332776e+00
1.2023000619e+00
1.2023704692e+00
1.2024439621e+00
1.2025199966e+00
1.2025980266e+00
1.2026775128e+00
1.2027579263e+00
1.2028387566e+00
1.2029195142e+00
1.2029997374e+00
1.2030789945e+00
1.2031568882e+00
1.2032330569e+00
1.2033071785e+00
1.2033789689e+00
1.2034481856e+00
1.2035146247e+00
1.2035781228e+00
1.2036385538e+00
1.2036958291e+00
1.2037498940e+00
1.2038007267e+00
1.2038483346e+00
1.2038927526e+00
1.2039340391e+00
1.2039722743e+00
1.2040075557e+00
1.2040399966e+00
1.2040697222e+00
1.2040968675e+00
1.2041215741e+00
1.2041439887e+00
1.2041642597e+00
1.2041825363e+00
1.2041989661e+00
1.2042136937e+00
1.2042268594e+00
1.2042385983e+00
1.2042490389e+00
1.2042583031e+00
1.2042665051e+00
1.2042737514e+00
1.2042801405e+00
1.2042857630e+00
1.2042907017e+00
1.2042950315e+00
1.2042988202e+00
1.2043021285e+00
1.2043050105e+00
1.2043075141e+00
1.2043096820e+00
1.2043115513e+00
1.2043131550e+00
1.2043145218e+00
1.2043156769e+00
1.2043166423e+00
1.2043174377e+00
1.2043180803e+00
1.2043185855e+00
1.2043189673e+00
1.2043192381e+00
1.2043194097e+00
1.2043194928e+00
1.2043194976e+00
1.2043194337e+00
1.2043193102e+00
1.2043191357e+00
1.2043189188e+00
1.2043186673e+00
1.2043183890e+00
1.2043180912e+00
1.2043177806e+00
1.2043174640e+00
1.2043171472e+00
1.2043168360e+00
1.2043165355e+00
1.2043162505e+00
1.2043159852e+00
1.2043157435e+00
1.2043155287e+00
1.2043153439e+00
1.2043151917e+00
1.2043150743e+00
1.2043149938e+00
1.2043149518e+00
1.2043149496e+00
1.2043149883e+00
1.2043150687e+00
1.2043146496e+00
1.2019301567e+00
1.2019427940e+00
1.2019569135e+00
1.2019778726e+00
1.2020054890e+00
1.2020395240e+00
1.2020796844e+00
1.2021256282e+00
1.2021769680e+00
1.2022332776e+00
1.2022940969e+00
1.2023589394e+00
1.2024272974e+00
1.2024986500e+00
1.2025724681e+00
1.2026482229e+00
1.2027253897e+00
1.2028034563e+00
1.2028819259e+00
1.2029603245e+00
1.2030382030e+00
1.2031151432e+00
1.2031907587e+00
1.2032646995e+00
1.2033366518e+00
1.2034063411e+00
1.2034735309e+00
1.2035380244e+00
1.2035996622e+00
1.2036583228e+00
1.2037139195e+00
1.2037664001e+00
1.2038157429e+00
1.2038619558e+00
1.2039050722e+00
1.2039451497e+00
1.2039822655e+00
1.2040165152e+00
1.2040480082e+00
1.2040768667e+00
1.2041032216e+00
1.2041272108e+00
1.2041489764e+00
1.2041686629e+00
1.2041864149e+00
1.2042023760e+00
1.2042166864e+00
1.2042294825e+00
1.2042408950e+00
1.2042510488e+00
1.2042600620e+00
1.2042680453e+00
1.2042751018e+00
1.2042813269e+00
1.2042868082e+00
1.2042916257e+00
1.2042958519e+00
1.2042995521e+00
1.2043027848e+00
1.2043056021e+00
1.2043080504e+00
1.2043101705e+00
1.2043119982e+00
1.2043135651e+00
1.2043148990e+00
1.2043160240e+00
1.2043169615e+00
1.2043177304e+00
1.2043183474e+00
1.2043188276e+00
1.2043191844e+00
1.2043194304e+00
1.2043195771e+00
1.2043196351e+00
1.2043196147e+00
1.2043195255e+00
1.2043193767e+00
1.2043191772e+00
1.2043189354e+00
1.2043186597e+00
1.2043183576e+00
1.2043180368e+00
1.2043177042e+00
1.2043173663e+00
1.2043170295e+00
1.2043166994e+00
1.2043163812e+00
1.2043160797e+00
1.2043157991e+00
1.2043155433e+00
1.2043153156e+00
1.2043151191e+00
1.2043149561e+00
1.2043148291e+00
1.2043147397e+00
1.2043146896e+00
1.2043146801e+00
1.2043147122e+00
1.2043147867e+00
1.2043142630e+00
1.2020064355e+00
1.2020188109e+00
1.2020324853e+00
1.2020527819e+00
1.2020795239e+00
1.2021124789e+00
1.2021513632e+00
1.2021958447e+00
1.2022455488e+00
1.2023000619e+00
1.2023589394e+00
1.2024217095e+00
1.2024878816e+00
1.2025569506e+00
1.2026284054e+00
1.2027017331e+00
1.2027764270e+00
1.2028519901e+00
1.2029279430e+00
1.2030038256e+00
1.2030792046e+00
1.2031536740e+00
1.2032268610e+00
1.2032984258e+00
1.2033680658e+00
1.2034355145e+00
1.2035005440e+00
1.2035629629e+00
1.2036226179e+00
1.2036793909e+00
1.2037331987e+00
1.2037839902e+00
1.2038317451e+00
1.2038764708e+00
1.2039182002e+00
1.2039569887e+00
1.2039929117e+00
1.2040260613e+00
1.2040565442e+00
1.2040844783e+00
1.2041099907e+00
1.2041332149e+00
1.2041542886e+00
1.2041733516e+00
1.2041905443e+00
1.2042060052e+00
1.2042198705e+00
1.2042322717e+00
1.2042433358e+00
1.2042531831e+00
1.2042619280e+00
1.2042696773e+00
1.2042765307e+00
1.2042825801e+00
1.2042879101e+00
1.2042925977e+00
1.2042967126e+00
1.2043003178e+00
1.2043034694e+00
1.2043062176e+00
1.2043086066e+00
1.2043106756e+00
1.2043124590e+00
1.2043139871e+00
1.2043152864e+00
1.2043163801e+00
1.2043172887e+00
1.2043180303e+00
1.2043186213e+00
1.2043190761e+00
1.2043194079e+00
1.2043196291e+00