# vtk DataFile Version 2.0
Blank
ASCII
DATASET STRUCTURED_GRID
DIMENSIONS 101 101 2
POINTS 20402 float
0.0000000000e+00 0.0000000000e+00 0.0000000000e+00
1.0000000000e-02 0.0000000000e+00 0.0000000000e+00
2.0000000000e-02 0.0000000000e+00 0.0000000000e+00
3.0000000000e-02 0.0000000000e+00 0.0000000000e+00
4.0000000000e-02 0.0000000000e+00 0.0000000000e+00
5.0000000000e-02 0.0000000000e+00 0.0000000000e+00
6.0000000000e-02 0.0000000000e+00 0.0000000000e+00
7.0000000000e-02 0.0000000000e+00 0.0000000000e+00
8.0000000000e-02 0.0000000000e+00 0.0000000000e+00
9.0000000000e-02 0.0000000000e+00 0.0000000000e+00
1.0000000000e-01 0.0000000000e+00 0.0000000000e+00
1.1000000000e-01 0.0000000000e+00 0.0000000000e+00
1.2000000000e-01 0.0000000000e+00 0.0000000000e+00
1.3000000000e-01 0.0000000000e+00 0.0000000000e+00
1.4000000000e-01 0.0000000000e+00 0.0000000000e+00
1.5000000000e-01 0.0000000000e+00 0.0000000000e+00
1.6000000000e-01 0.0000000000e+00 0.0000000000e+00
1.7000000000e-01 0.0000000000e+00 0.0000000000e+00
1.8000000000e-01 0.0000000000e+00 0.0000000000e+00
1.9000000000e-01 0.0000000000e+00 0.0000000000e+00
2.0000000000e-01 0.0000000000e+00 0.0000000000e+00
2.1000000000e-01 0.0000000000e+00 0.0000000000e+00
2.2000000000e-01 0.0000000000e+00 0.0000000000e+00
2.3000000000e-01 0.0000000000e+00 0.0000000000e+00
2.4000000000e-01 0.0000000000e+00 0.0000000000e+00
2.5000000000e-01 0.0000000000e+00 0.0000000000e+00
2.6000000000e-01 0.0000000000e+00 0.0000000000e+00
2.7000000000e-01 0.0000000000e+00 0.0000000000e+00
2.8000000000e-01 0.0000000000e+00 0.0000000000e+00
2.9000000000e-01 0.0000000000e+00 0.0000000000e+00
3.0000000000e-01 0.0000000000e+00 0.0000000000e+00
3.1000000000e-01 0.0000000000e+00 0.0000000000e+00
3.2000000000e-01 0.0000000000e+00 0.0000000000e+00
3.3000000000e-01 0.0000000000e+00 0.0000000000e+00
3.4000000000e-01 0.0000000000e+00 0.0000000000e+00
3.5000000000e-01 0.0000000000e+00 0.0000000000e+00
3.6000000000e-01 0.0000000000e+00 0.0000000000e+00
3.7000000000e-01 0.0000000000e+00 0.0000000000e+00
3.8000000000e-01 0.0000000000e+00 0.0000000000e+00
3.9000000000e-01 0.0000000000e+00 0.0000000000e+00
4.0000000000e-01 0.0000000000e+00 0.0000000000e+00
4.1000000000e-01 0.0000000000e+00 0.0000000000e+00
4.2000000000e-01 0.0000000000e+00 0.0000000000e+00
4.3000000000e-01 0.0000000000e+00 0.0000000000e+00
4.4000000000e-01 0.0000000000e+00 0.0000000000e+00
4.5000000000e-01 0.0000000000e+00 0.0000000000e+00
4.6000000000e-01 0.0000000000e+00 0.0000000000e+00
4.7000000000e-01 0.0000000000e+00 0.0000000000e+00
4.8000000000e-01 0.0000000000e+00 0.0000000000e+00
4.9000000000e-01 0.0000000000e+00 0.0000000000e+00
5.0000000000e-01 0.0000000000e+00 0.0000000000e+00
5.1000000000e-01 0.0000000000e+00 0.0000000000e+00
5.2000000000e-01 0.0000000000e+00 0.0000000000e+00
5.3000000000e-01 0.0000000000e+00 0.0000000000e+00
5.4000000000e-01 0.0000000000e+00 0.0000000000e+00
5.5000000000e-01 0.0000000000e+00 0.0000000000e+00
5.6000000000e-01 0.0000000000e+00 0.0000000000e+00
5.7000000000e-01 0.0000000000e+00 0.0000000000e+00
5.8000000000e-01 0.0000000000e+00 0.0000000000e+00
5.9000000000e-01 0.0000000000e+00 0.0000000000e+00
6.0000000000e-01 0.0000000000e+00 0.0000000000e+00
6.1000000000e-01 0.0000000000e+00 0.0000000000e+00
6.2000000000e-01 0.0000000000e+00 0.0000000000e+00
6.3000000000e-01 0.0000000000e+00 0.0000000000e+00
6.4000000000e-01 0.0000000000e+00 0.0000000000e+00
6.5000000000e-01 0.0000000000e+00 0.0000000000e+00
6.6000000000e-01 0.0000000000e+00 0.0000000000e+00
6.7000000000e-01 0.0000000000e+00 0.0000000000e+00
6.8000000000e-01 0.0000000000e+00 0.0000000000e+00
6.9000000000e-01 0.0000000000e+00 0.0000000000e+00
7.0000000000e-01 0.0000000000e+00 0.0000000000e+00
7.1000000000e-01 0.0000000000e+00 0.0000000000e+00
7.2000000000e-01 0.0000000000e+00 0.0000000000e+00
7.3000000000e-01 0.0000000000e+00 0.0000000000e+00
7.4000000000e-01 0.0000000000e+00 0.0000000000e+00
7.5000000000e-01 0.0000000000e+00 0.0000000000e+00
7.6000000000e-01 0.0000000000e+00 0.0000000000e+00
7.7000000000e-01 0.0000000000e+00 0.0000000000e+00
7.8000000000e-01 0.0000000000e+00 0.0000000000e+00
7.9000000000e-01 0.0000000000e+00 0.0000000000e+00
8.0000000000e-01 0.0000000000e+00 0.0000000000e+00
8.1000000000e-01 0.0000000000e+00 0.0000000000e+00
8.2000000000e-01 0.0000000000e+00 0.0000000000e+00
8.3000000000e-01 0.0000000000e+00 0.0000000000e+00
8.4000000000e-01 0.0000000000e+00 0.0000000000e+00
8.5000000000e-01 0.0000000000e+00 0.0000000000e+00
8.6000000000e-01 0.0000000000e+00 0.0000000000e+00
8.7000000000e-01 0.0000000000e+00 0.0000000000e+00
8.8000000000e-01 0.0000000000e+00 0.0000000000e+00
8.9000000000e-01 0.0000000000e+00 0.0000000000e+00
9.0000000000e-01 0.0000000000e+00 0.0000000000e+00
9.1000000000e-01 0.0000000000e+00 0.0000000000e+00
9.2000000000e-01 0.0000000000e+00 0.0000000000e+00
9.3000000000e-01 0.0000000000e+00 0.0000000000e+00
9.4000000000e-01 0.0000000000e+00 0.0000000000e+00
9.5000000000e-01 0.0000000000e+00 0.0000000000e+00
9.6000000000e-01 0.0000000000e+00 0.0000000000e+00
9.7000000000e-01 0.0000000000e+00 0.0000000000e+00
9.8000000000e-01 0.0000000000e+00 0.0000000000e+00
9.9000000000e-01 0.0000000000e+00 0.0000000000e+00
1.0000000000e+00 0.0000000000e+00 0.0000000000e+00
0.0000000000e+00 1.0000000000e-02 0.0000000000e+00
1.0000000000e-02 1.0000000000e-02 0.0000000000e+00
2.0000000000e-02 1.0000000000e-02 0.0000000000e+00
3.0000000000e-02 1.0000000000e-02 0.0000000000e+00
4.0000000000e-02 1.0000000000e-02 0.0000000000e+00
5.0000000000e-02 1.0000000000e-02 0.0000000000e+00
6.0000000000e-02 1.0000000000e-02 0.0000000000e+00
7.0000000000e-02 1.0000000000e-02 0.0000000000e+00
8.0000000000e-02 1.0000000000e-02 0.0000000000e+00
9.0000000000e-02 1.0000000000e-02 0.0000000000e+00
1.0000000000e-01 1.0000000000e-02 0.0000000000e+00
1.1000000000e-01 1.0000000000e-02 0.0000000000e+00
1.2000000000e-01 1.0000000000e-02 0.0000000000e+00
1.3000000000e-01 1.0000000000e-02 0.0000000000e+00
1.4000000000e-01 1.0000000000e-02 0.0000000000e+00
1.5000000000e-01 1.0000000000e-02 0.0000000000e+00
1.6000000000e-01 1.0000000000e-02 0.0000000000e+00
1.7000000000e-01 1.0000000000e-02 0.0000000000e+00
1.8000000000e-01 1.0000000000e-02 0.0000000000e+00
1.9000000000e-01 1.0000000000e-02 0.0000000000e+00
2.0000000000e-01 1.0000000000e-02 0.0000000000e+00
2.1000000000e-01 1.0000000000e-02 0.0000000000e+00
2.2000000000e-01 1.0000000000e-02 0.0000000000e+00
2.3000000000e-01 1.0000000000e-02 0.0000000000e+00
2.4000000000e-01 1.0000000000e-02 0.0000000000e+00
2.5000000000e-01 1.0000000000e-02 0.0000000000e+00
2.6000000000e-01 1.0000000000e-02 0.0000000000e+00
2.7000000000e-01 1.0000000000e-02 0.0000000000e+00
2.8000000000e-01 1.0000000000e-02 0.0000000000e+00
2.9000000000e-01 1.0000000000e-02 0.0000000000e+00
3.0000000000e-01 1.0000000000e-02 0.0000000000e+00
3.1000000000e-01 1.0000000000e-02 0.0000000000e+00
3.2000000000e-01 1.0000000000e-02 0.0000000000e+00
3.3000000000e-01 1.0000000000e-02 0.0000000000e+00
3.4000000000e-01 1.0000000000e-02 0.0000000000e+00
3.5000000000e-01 1.0000000000e-02 0.0000000000e+00
3.6000000000e-01 1.0000000000e-02 0.0000000000e+00
3.7000000000e-01 1.0000000000e-02 0.0000000000e+00
3.8000000000e-01 1.0000000000e-02 0.0000000000e+00
3.9000000000e-01 1.0000000000e-02 0.0000000000e+00
4.0000000000e-01 1.0000000000e-02 0.0000000000e+00
4.1000000000e-01 1.0000000000e-02 0.0000000000e+00
4.2000000000e-01 1.0000000000e-02 0.0000000000e+00
4.3000000000e-01 1.0000000000e-02 0.0000000000e+00
4.4000000000e-01 1.0000000000e-02 0.0000000000e+00
4.5000000000e-01 1.0000000000e-02 0.0000000000e+00
4.6000000000e-01 1.0000000000e-02 0.0000000000e+00
4.7000000000e-01 1.0000000000e-02 0.0000000000e+00
4.8000000000e-01 1.0000000000e-02 0.0000000000e+00
4.9000000000e-01 1.0000000000e-02 0.0000000000e+00
5.0000000000e-01 1.0000000000e-02 0.0000000000e+00
5.1000000000e-01 1.0000000000e-02 0.0000000000e+00
5.2000000000e-01 1.0000000000e-02 0.0000000000e+00
5.3000000000e-01 1.0000000000e-02 0.0000000000e+00
5.4000000000e-01 1.0000000000e-02 0.0000000000e+00
5.5000000000e-01 1.0000000000e-02 0.0000000000e+00
5.6000000000e-01 1.0000000000e-02 0.0000000000e+00
5.7000000000e-01 1.0000000000e-02 0.0000000000e+00
5.8000000000e-01 1.0000000000e-02 0.0000000000e+00
5.9000000000e-01 1.0000000000e-02 0.0000000000e+00
6.0000000000e-01 1.0000000000e-02 0.0000000000e+00
6.1000000000e-01 1.0000000000e-02 0.0000000000e+00
6.2000000000e-01 1.0000000000e-02 0.0000000000e+00
6.3000000000e-01 1.0000000000e-02 0.0000000000e+00
6.4000000000e-01 1.0000000000e-02 0.0000000000e+00
6.5000000000e-01 1.0000000000e-02 0.0000000000e+00
6.6000000000e-01 1.0000000000e-02 0.0000000000e+00
6.7000000000e-01 1.0000000000e-02 0.0000000000e+00
6.8000000000e-01 1.0000000000e-02 0.0000000000e+00
6.9000000000e-01 1.0000000000e-02 0.0000000000e+00
7.0000000000e-01 1.0000000000e-02 0.0000000000e+00
7.1000000000e-01 1.0000000000e-02 0.0000000000e+00
7.2000000000e-01 1.0000000000e-02 0.0000000000e+00
7.3000000000e-01 1.0000000000e-02 0.0000000000e+00
7.4000000000e-01 1.0000000000e-02 0.0000000000e+00
7.5000000000e-01 1.0000000000e-02 0.0000000000e+00
7.6000000000e-01 1.0000000000e-02 0.0000000000e+00
7.7000000000e-01 1.0000000000e-02 0.0000000000e+00
7.8000000000e-01 1.0000000000e-02 0.0000000000e+00
7.9000000000e-01 1.0000000000e-02 0.0000000000e+00
8.0000000000e-01 1.0000000000e-02 0.0000000000e+00
8.1000000000e-01 1.0000000000e-02 0.0000000000e+00
8.2000000000e-01 1.0000000000e-02 0.0000000000e+00
8.3000000000e-01 1.0000000000e-02 0.0000000000e+00
8.4000000000e-01 1.0000000000e-02 0.0000000000e+00
8.5000000000e-01 1.0000000000e-02 0.0000000000e+00
8.6000000000e-01 1.0000000000e-02 0.0000000000e+00
8.7000000000e-01 1.0000000000e-02 0.0000000000e+00
8.8000000000e-01 1.0000000000e-02 0.0000000000e+00
8.9000000000e-01 1.0000000000e-02 0.0000000000e+00
9.0000000000e-01 1.0000000000e-02 0.0000000000e+00
9.1000000000e-01 1.0000000000e-02 0.0000000000e+00
9.2000000000e-01 1.0000000000e-02 0.0000000000e+00
[...]
CELL_DATA 10000

SCALARS massDensity float
LOOKUP_TABLE default
1.2006894353e+00
1.2007077311e+00
1.2007340959e+00
1.2007741619e+00
1.2008274030e+00
1.2008931623e+00
1.2009706671e+00
1.2010590410e+00
1.2011573152e+00
1.2012644437e+00
1.2013793191e+00
1.2015007901e+00
1.2016276797e+00
1.2017588031e+00
1.2018929853e+00
1.2020290782e+00
1.2021659753e+00
1.2023026264e+00
1.2024380487e+00
1.2025713379e+00
1.2027016751e+00
1.2028283338e+00
1.2029506825e+00
1.2030681875e+00
1.2031804119e+00
1.2032870143e+00
1.2033877445e+00
1.2034824392e+00
1.2035710157e+00
1.2036534646e+00
1.2037298427e+00
1.2038002646e+00
1.2038648942e+00
1.2039239372e+00
1.2039776320e+00
1.2040262427e+00
1.2040700516e+00
1.2041093527e+00
1.2041444453e+00
1.2041756296e+00
1.2042032013e+00
1.2042274486e+00
1.2042486487e+00
1.2042670663e+00
1.2042829512e+00
1.2042965377e+00
1.2043080444e+00
1.2043176736e+00
1.2043256124e+00
1.2043320327e+00
1.2043370923e+00
1.2043409364e+00
1.2043436978e+00
1.2043454987e+00
1.2043464515e+00
1.2043466599e+00
1.2043462196e+00
1.2043452194e+00
1.2043437414e+00
1.2043418621e+00
1.2043396523e+00
1.2043371775e+00
1.2043344983e+00
1.2043316704e+00
1.2043287443e+00
1.2043257660e+00
1.2043227764e+00
1.2043198118e+00
1.2043169035e+00
1.2043140782e+00
1.2043113579e+00
1.2043087602e+00
1.2043062985e+00
1.2043039821e+00
1.2043018166e+00
1.2042998042e+00
1.2042979440e+00
1.2042962325e+00
1.2042946639e+00
1.2042932305e+00
1.2042919231e+00
1.2042907316e+00
1.2042896453e+00
1.2042886535e+00
1.2042877462e+00
1.2042869143e+00
1.2042861504e+00
1.2042854492e+00
1.2042848082e+00
1.2042842276e+00
1.2042837112e+00
1.2042832661e+00
1.2042829037e+00
1.2042826405e+00
1.2042825011e+00
1.2042825225e+00
1.2042827615e+00
1.2042833027e+00
1.2042842611e+00
1.2042772805e+00
1.2007077311e+00
1.2007271701e+00
1.2007540566e+00
1.2007943674e+00
1.2008476472e+00
1.2009132870e+00
1.2009905461e+00
1.2010785690e+00
1.2011764023e+00
1.2012830108e+00
1.2013972963e+00
1.2015181146e+00
1.2016442954e+00
1.2017746592e+00
1.2019080366e+00
1.2020432835e+00
1.2021792982e+00
1.2023150339e+00
1.2024495119e+00
1.2025818310e+00
1.2027111759e+00
1.2028368229e+00
1.2029581441e+00
1.2030746086e+00
1.2031857830e+00
1.2032913287e+00
1.2033909992e+00
1.2034846344e+00
1.2035721554e+00
1.2036535565e+00
1.2037288987e+00
1.2037983007e+00
1.2038619314e+00
1.2039200007e+00
1.2039727527e+00
1.2040204564e+00
1.2040634000e+00
1.2041018827e+00
1.2041362099e+00
1.2041666872e+00
1.2041936162e+00
1.2042172900e+00
1.2042379913e+00
1.2042559888e+00
1.2042715365e+00
1.2042848717e+00
1.2042962155e+00
1.2043057715e+00
1.2043137273e+00
1.2043202541e+00
1.2043255082e+00
1.2043296318e+00
1.2043327543e+00
1.2043349928e+00
1.2043364544e+00
1.2043372362e+00
1.2043374272e+00
1.2043371084e+00
1.2043363546e+00
1.2043352339e+00
1.2043338093e+00
1.2043321385e+00
1.2043302744e+00
1.2043282655e+00
1.2043261557e+00
1.2043239846e+00
1.2043217877e+00
1.2043195963e+00
1.2043174375e+00
1.2043153344e+00
1.2043133063e+00
1.2043113686e+00
1.2043095329e+00
1.2043078076e+00
1.2043061979e+00
1.2043047061e+00
1.2043033318e+00
1.2043020725e+00
1.2043009237e+00
1.2042998793e+00
1.2042989322e+00
1.2042980742e+00
1.2042972970e+00
1.2042965920e+00
1.2042959511e+00
1.2042953669e+00
1.2042948329e+00
1.2042943443e+00
1.2042938977e+00
1.2042934915e+00
1.2042931261e+00
1.2042928041e+00
1.2042925298e+00
1.2042923102e+00
1.2042921549e+00
1.2042920770e+00
1.2042920920e+00
1.2042922146e+00
1.2042924453e+00
1.2042839604e+00
1.2007340959e+00
1.2007540566e+00
1.2007810094e+00
1.2008212042e+00
1.2008742133e+00
1.2009394512e+00
1.2010161954e+00
1.2011036056e+00
1.2012007406e+00
1.2013065770e+00
1.2014200262e+00
1.2015399547e+00
1.2016652009e+00
1.2017945954e+00
1.2019269768e+00
1.2020612103e+00
1.2021962015e+00
1.2023309119e+00
1.2024643693e+00
1.2025956793e+00
1.2027240320e+00
1.2028487096e+00
1.2029690881e+00
1.2030846411e+00
1.2031949380e+00
1.2032996434e+00
1.2033985125e+00
1.2034913874e+00
1.2035781897e+00
1.2036589150e+00
1.2037336242e+00
1.2038024364e+00
1.2038655198e+00
1.2039230843e+00
1.2039753726e+00
1.2040226536e+00
1.2040652138e+00
1.2041033518e+00
1.2041373714e+00
1.2041675772e+00
1.2041942689e+00
1.2042177387e+00
1.2042382669e+00
1.2042561211e+00
1.2042715529e+00
1.2042847980e+00
1.2042960750e+00
1.2043055856e+00
1.2043135147e+00
1.2043200314e+00
1.2043252894e+00
1.2043294285e+00
1.2043325756e+00
1.2043348457e+00
1.2043363434e+00
1.2043371642e+00
1.2043373947e+00
1.2043371150e+00
1.2043363979e+00
1.2043353111e+00
1.2043339164e+00
1.2043322714e+00
1.2043304286e+00
1.2043284366e+00
1.2043263397e+00
1.2043241779e+00
1.2043219872e+00
1.2043197997e+00
1.2043176432e+00
1.2043155415e+00
1.2043135146e+00
1.2043115783e+00
1.2043097450e+00
1.2043080235e+00
1.2043064192e+00
1.2043049347e+00
1.2043035696e+00
1.2043023215e+00
1.2043011858e+00
1.2043001563e+00
1.2042992257e+00
1.2042983858e+00
1.2042976279e+00
1.2042969432e+00
1.2042963233e+00
1.2042957604e+00
1.2042952476e+00
1.2042947789e+00
1.2042943500e+00
1.2042939578e+00
1.2042936006e+00
1.2042932784e+00
1.2042929920e+00
1.2042927432e+00
1.2042925345e+00
1.2042923668e+00
1.2042922376e+00
1.2042921335e+00
1.2042920163e+00
1.2042827469e+00
1.2007741619e+00
1.2007943674e+00
1.2008212042e+00
1.2008610961e+00
1.2009136238e+00
1.2009782149e+00
1.2010541621e+00
1.2011406394e+00
1.2012367205e+00
1.2013413956e+00
1.2014535911e+00
1.2015721866e+00
1.2016960353e+00
1.2018239803e+00
1.2019548744e+00
1.2020875948e+00
1.2022210601e+00
1.2023542426e+00
1.2024861814e+00
1.2026159914e+00
1.2027428726e+00
1.2028661139e+00
1.2029850995e+00
1.2030993080e+00
1.2032083145e+00
1.2033117871e+00
1.2034094848e+00
1.2035012511e+00
1.2035870098e+00
1.2036667568e+00
1.2037405536e+00
1.2038085184e+00
1.2038708189e+00
1.2039276634e+00
1.2039792934e+00
1.2040259754e+00
1.2040679943e+00
1.2041056460e+00
1.2041392324e+00
1.2041690550e+00
1.2041954115e+00
1.2042185907e+00
1.2042388709e+00
1.2042565162e+00
1.2042717759e+00
1.2042848822e+00
1.2042960511e+00
1.2043054810e+00
1.2043133539e+00
1.2043198356e+00
1.2043250771e+00
1.2043292149e+00
1.2043323730e+00
1.2043346638e+00
1.2043361893e+00
1.2043370424e+00
1.2043373080e+00
1.2043370638e+00
1.2043363816e+00
1.2043353274e+00
1.2043339624e+00
1.2043323434e+00
1.2043305227e+00
1.2043285488e+00
1.2043264661e+00
1.2043243150e+00
1.2043221321e+00
1.2043199500e+00
1.2043177971e+00
1.2043156980e+00
1.2043136733e+00
1.2043117394e+00
1.2043099092e+00
1.2043081920e+00
1.2043065935e+00
1.2043051164e+00
1.2043037606e+00
1.2043025237e+00
1.2043014010e+00
1.2043003863e+00
1.2042994720e+00
1.2042986498e+00
1.2042979107e+00
1.2042972458e+00
1.2042966462e+00
1.2042961035e+00
1.2042956101e+00
1.2042951596e+00
1.2042947462e+00
1.2042943655e+00
1.2042940141e+00
1.2042936893e+00
1.2042933889e+00
1.2042931108e+00
1.2042928514e+00
1.2042926044e+00
1.2042923576e+00
1.2042920866e+00
1.2042917464e+00
1.2042820331e+00
1.2008274030e+00
1.2008476472e+00
1.2008742133e+00
1.2009136238e+00
1.2009654614e+00
1.2010291635e+00
1.2011040351e+00
1.2011892662e+00
1.2012839459e+00
1.2013870824e+00
1.2014976184e+00
1.2016144525e+00
1.2017364544e+00
1.2018624863e+00
1.2019914172e+00
1.2021221422e+00
1.2022535952e+00
1.2023847647e+00
1.2025147031e+00
1.2026425396e+00
1.2027674850e+00
1.2028888399e+00
1.2030059968e+00
1.2031184432e+00
1.2032257599e+00
1.2033276211e+00
1.2034237891e+00
1.2035141111e+00
1.2035985120e+00
1.2036769892e+00
1.2037496034e+00
1.2038164726e+00
1.2038777627e+00
1.2039336802e+00
1.2039844638e+00
1.2040303776e+00
1.2040717028e+00
1.2041087325e+00
1.2041417645e+00
1.2041710971e+00
1.2041970238e+00
1.2042198302e+00
1.2042397901e+00
1.2042571644e+00
1.2042721978e+00
1.2042851193e+00
1.2042961406e+00
1.2043054565e+00
1.2043132450e+00
1.2043196685e+00
1.2043248738e+00
1.2043289945e+00
1.2043321507e+00
1.2043344520e+00
1.2043359971e+00
1.2043368765e+00
1.2043371723e+00
1.2043369606e+00
1.2043363110e+00
1.2043352882e+00
1.2043339524e+00
1.2043323595e+00
1.2043305614e+00
1.2043286063e+00
1.2043265388e+00
1.2043243996e+00
1.2043222255e+00
1.2043200499e+00
1.2043179017e+00
1.2043158061e+00
1.2043137843e+00
1.2043118534e+00
1.2043100269e+00
1.2043083143e+00
1.2043067218e+00
1.2043052522e+00
1.2043039058e+00
1.2043026800e+00
1.2043015702e+00
1.2043005701e+00
1.2042996721e+00
1.2042988674e+00
1.2042981470e+00
1.2042975014e+00
1.2042969216e+00
1.2042963986e+00
1.2042959242e+00
1.2042954910e+00
1.2042950925e+00
1.2042947229e+00
1.2042943772e+00
1.2042940507e+00
1.2042937390e+00
1.2042934368e+00
1.2042931371e+00
1.2042928296e+00
1.2042924981e+00
1.2042921170e+00
1.2042916459e+00
1.2042817302e+00
1.2008931623e+00
1.2009132870e+00
1.2009394512e+00
1.2009782149e+00
1.2010291635e+00
1.2010917423e+00
1.2011652705e+00
1.2012489531e+00
1.2013418985e+00
1.2014431332e+00
1.2015516223e+00
1.2016662838e+00
1.2017860108e+00
1.2019096854e+00
1.2020361996e+00
1.2021644677e+00
1.2022934450e+00
1.2024221374e+00
1.2025496166e+00
1.2026750266e+00
1.2027975942e+00
1.2029166321e+00
1.2030315454e+00
1.2031418303e+00
1.2032470770e+00
1.2033469649e+00
1.2034412625e+00
1.2035298193e+00
1.2036125635e+00
1.2036894922e+00
1.2037606671e+00
1.2038262040e+00
1.2038862674e+00
1.2039410605e+00
1.2039908194e+00
1.2040358036e+00
1.2040762909e+00
1.2041125692e+00
1.2041449323e+00
1.2041736733e+00
1.2041990814e+00
1.2042214366e+00
1.2042410086e+00
1.2042580526e+00
1.2042728093e+00
1.2042855024e+00
1.2042963392e+00
1.2043055097e+00
1.2043131877e+00
1.2043195307e+00
1.2043246819e+00
1.2043287703e+00
1.2043319127e+00
1.2043342146e+00
1.2043357719e+00
1.2043366715e+00
1.2043369934e+00
1.2043368107e+00
1.2043361916e+00
1.2043351988e+00
1.2043338915e+00
1.2043323244e+00
1.2043305490e+00
1.2043286132e+00
1.2043265615e+00
1.2043244348e+00
1.2043222704e+00
1.2043201020e+00
1.2043179591e+00
1.2043158676e+00
1.2043138493e+00
1.2043119219e+00
1.2043100993e+00
1.2043083915e+00
1.2043068050e+00
1.2043053432e+00
1.2043040061e+00
1.2043027914e+00
1.2043016945e+00
1.2043007091e+00
1.2042998272e+00
1.2042990401e+00
1.2042983383e+00
1.2042977123e+00
1.2042971524e+00
1.2042966492e+00
1.2042961940e+00
1.2042957787e+00
1.2042953958e+00
1.2042950386e+00
1.2042947007e+00
1.2042943762e+00
1.2042940588e+00
1.2042937413e+00
1.2042934151e+00
1.2042930684e+00
1.2042926845e+00
1.2042922405e+00
1.2042917042e+00
1.2042817598e+00
1.2009706671e+00
1.2009905461e+00
1.2010161954e+00
1.2010541621e+00
1.2011040351e+00
1.2011652705e+00
1.2012372007e+00
1.2013190494e+00
1.2014099443e+00
1.2015089356e+00
1.2016150101e+00
1.2017271126e+00
1.2018441592e+00
1.2019650593e+00
1.2020887278e+00
1.2022141054e+00
1.2023401690e+00
1.2024659486e+00
1.2025905350e+00
1.2027130931e+00
1.2028328656e+00
1.2029491824e+00
1.2030614604e+00
1.2031692090e+00
1.2032720266e+00
1.2033696017e+00
1.2034617071e+00
1.2035481979e+00
1.2036290033e+00
1.2037041227e+00
1.2037736161e+00
1.2038375989e+00
1.2038962320e+00
1.2039497162e+00
1.2039982824e+00
1.2040421864e+00
1.2040817000e+00
1.2041171066e+00
1.2041486934e+00
1.2041767485e+00
1.2042015544e+00
1.2042233861e+00
1.2042425066e+00
1.2042591660e+00
1.2042735988e+00
1.2042860234e+00
1.2042966413e+00
1.2043056376e+00
1.2043131805e+00
1.2043194230e+00
1.2043245031e+00
1.2043285456e+00
1.2043316628e+00
1.2043339564e+00
1.2043355185e+00
1.2043364329e+00
1.2043367763e+00
1.2043366197e+00
1.2043360286e+00
1.2043350644e+00
1.2043337845e+00
1.2043322427e+00
1.2043304898e+00
1.2043285734e+00
1.2043265378e+00
1.2043244239e+00
1.2043222696e+00
1.2043201087e+00
1.2043179716e+00
1.2043158845e+00
1.2043138700e+00
1.2043119462e+00
1.2043101276e+00
1.2043084247e+00
1.2043068444e+00
1.2043053901e+00
1.2043040624e+00
1.2043028589e+00
1.2043017751e+00
1.2043008044e+00
1.2042999389e+00
1.2042991698e+00
1.2042984872e+00
1.2042978812e+00
1.2042973419e+00
1.2042968595e+00
1.2042964247e+00
1.2042960288e+00
1.2042956636e+00
1.2042953216e+00
1.2042949955e+00
1.2042946783e+00
1.2042943628e+00
1.2042940409e+00
1.2042937032e+00
1.2042933380e+00
1.2042929304e+00
1.2042924610e+00
1.2042919059e+00
1.2042820610e+00
1.2010590410e+00
1.2010785690e+00
1.2011036056e+00
1.2011406394e+00
1.2011892662e+00
1.2012489531e+00
1.2013190494e+00
1.2013987975e+00
1.2014873487e+00
1.2015837767e+00
1.2016870965e+00
1.2017962786e+00
1.2019102697e+00
1.2020280056e+00
1.2021484317e+00
1.2022705144e+00
1.2023932592e+00
1.2025157197e+00
1.2026370125e+00
1.2027563223e+00
1.2028729138e+00
1.2029861328e+00
1.2030954134e+00
1.2032002767e+00
1.2033003336e+00
1.2033952798e+00
1.2034848962e+00
1.2035690410e+00
1.2036476475e+00
1.2037207148e+00
1.2037883035e+00
1.2038505261e+00
1.2039075415e+00
1.2039595453e+00
1.2040067647e+00
1.2040494488e+00
1.2040878645e+00
1.2041222878e+00
1.2041530002e+00
1.2041802820e+00
1.2042044098e+00
1.2042256510e+00
1.2042442625e+00
1.2042604872e+00
1.2042745532e+00
1.2042866725e+00
1.2042970406e+00
1.2043058361e+00
1.2043132220e+00
1.2043193453e+00
1.2043243391e+00
1.2043283230e+00
1.2043314048e+00
1.2043336818e+00
1.2043352420e+00
1.2043361658e+00
1.2043365268e+00
1.2043363930e+00
1.2043358276e+00
1.2043348901e+00
1.2043336363e+00
1.2043321190e+00
1.2043303882e+00
1.2043284908e+00
1.2043264710e+00
1.2043243701e+00
1.2043222258e+00
1.2043200726e+00
1.2043179412e+00
1.2043158587e+00
1.2043138479e+00
1.2043119277e+00
1.2043101132e+00
1.2043084152e+00
1.2043068410e+00
1.2043053945e+00
1.2043040762e+00
1.2043028840e+00
1.2043018134e+00
1.2043008580e+00
1.2043000095e+00
1.2042992589e+00
1.2042985964e+00
1.2042980116e+00
1.2042974942e+00
1.2042970343e+00
1.2042966219e+00
1.2042962479e+00
1.2042959036e+00
1.2042955808e+00
1.2042952716e+00
1.2042949685e+00
1.2042946637e+00
1.2042943488e+00
1.2042940146e+00
1.2042936503e+00
1.2042932430e+00
1.2042927775e+00
1.2042922366e+00
1.2042825902e+00
1.2011573152e+00
1.2011764023e+00
1.2012007406e+00
1.2012367205e+00
1.2012839459e+00
1.2013418985e+00
1.2014099443e+00
1.2014873487e+00
1.2015732864e+00
1.2016668599e+00
1.2017671117e+00
1.2018730448e+00
1.2019836353e+00
1.2020978526e+00
1.2022146716e+00
1.2023330916e+00
1.2024521457e+00
1.2025709177e+00
1.2026885488e+00
1.2028042501e+00
1.2029173065e+00
1.2030270855e+00
1.2031330367e+00
1.2032346978e+00
1.2033316898e+00
1.2034237203e+00
1.2035105754e+00
1.2035921204e+00
1.2036682897e+00
1.2037390851e+00
1.2038045650e+00
1.2038648411e+00
1.2039200675e+00
1.2039704363e+00
1.2040161680e+00
1.2040575066e+00
1.2040947109e+00
1.2041280508e+00
1.2041577993e+00
1.2041842299e+00
1.2042076106e+00
1.2042282018e+00
1.2042462520e+00
1.2042619973e+00
1.2042756580e+00
1.2042874393e+00
1.2042975294e+00
1.2043061009e+00
1.2043133098e+00
1.2043192976e+00
1.2043241913e+00
1.2043281053e+00
1.2043311423e+00
1.2043333951e+00
1.2043349473e+00
1.2043358756e+00
1.2043362500e+00
1.2043361359e+00
1.2043355937e+00
1.2043346810e+00
1.2043334519e+00
1.2043319579e+00
1.2043302482e+00
1.2043283692e+00
1.2043263649e+00
1.2043242764e+00
1.2043221418e+00
1.2043199961e+00
1.2043178703e+00
1.2043157921e+00
1.2043137849e+00
1.2043118683e+00
1.2043100576e+00
1.2043083645e+00
1.2043067965e+00
1.2043053577e+00
1.2043040491e+00
1.2043028686e+00
1.2043018118e+00
1.2043008721e+00
1.2043000415e+00
1.2042993106e+00
1.2042986695e+00
1.2042981075e+00
1.2042976141e+00
1.2042971789e+00
1.2042967918e+00
1.2042964431e+00
1.2042961238e+00
1.2042958252e+00
1.2042955392e+00
1.2042952578e+00
1.2042949731e+00
1.2042946768e+00
1.2042943603e+00
1.2042940140e+00
1.2042936273e+00
1.2042931886e+00
1.2042926857e+00
1.2042833175e+00
1.2012644437e+00
1.2012830108e+00
1.2013065770e+00
1.2013413956e+00
1.2013870824e+00
1.2014431332e+00
1.2015089356e+00
1.2015837767e+00
1.2016668599e+00
1.2017573155e+00
1.2018542197e+00
1.2019566066e+00
1.2020634885e+00
1.2021738671e+00
1.2022867537e+00
1.2024011789e+00
1.2025162104e+00
1.2026309607e+00
1.2027446020e+00
1.2028563700e+00
1.2029655758e+00
1.2030716064e+00
1.2031739325e+00
1.2032721056e+00
1.2033657624e+00
1.2034546186e+00
1.2035384708e+00
1.2036171874e+00
1.2036907081e+00
1.2037590340e+00
1.2038222242e+00
1.2038803865e+00
1.2039336723e+00
1.2039822674e+00
1.2040263872e+00
1.2040662677e+00
1.2041021611e+00
1.2041343281e+00
1.2041630345e+00
1.2041885443e+00
1.2042111177e+00
1.2042310058e+00
1.2042484496e+00
1.2042636759e+00
1.2042768979e+00
1.2042883123e+00
1.2042981004e+00
1.2043064270e+00
1.2043134419e+00
1.2043192795e+00
1.2043240611e+00
1.2043278951e+00
1.2043308791e+00
1.2043331006e+00
1.2043346392e+00
1.2043355673e+00
1.2043359515e+00
1.2043358537e+00
1.2043353323e+00
1.2043344422e+00
1.2043332360e+00
1.2043317640e+00
1.2043300742e+00
1.2043282126e+00
1.2043262229e+00
1.2043241461e+00
1.2043220208e+00
1.2043198819e+00
1.2043177613e+00
1.2043156871e+00
1.2043136832e+00
1.2043117698e+00
1.2043099630e+00
1.2043082746e+00
1.2043067128e+00
1.2043052821e+00
1.2043039834e+00
1.2043028152e+00
1.2043017728e+00
1.2043008500e+00
1.2043000384e+00
1.2042993288e+00
1.2042987108e+00
1.2042981738e+00
1.2042977069e+00
1.2042972996e+00
1.2042969412e+00
1.2042966221e+00
1.2042963327e+00
1.2042960642e+00
1.2042958081e+00
1.2042955566e+00
1.2042953016e+00
1.2042950354e+00
1.2042947499e+00
1.2042944370e+00
1.2042940878e+00
1.2042936939e+00
1.2042932469e+00
1.2042842248e+00
1.2013793191e+00
1.2013972963e+00
1.2014200262e+00
1.2014535911e+00
1.2014976184e+00
1.2015516223e+00
1.2016150101e+00
1.2016870965e+00
1.2017671117e+00
1.2018542197e+00
1.2019475285e+00
1.2020461100e+00
1.2021490106e+00
1.2022552714e+00
1.2023639377e+00
1.2024740787e+00
1.2025847944e+00
1.2026952327e+00
1.2028045942e+00
1.2029121459e+00
1.2030172224e+00
1.2031192364e+00
1.2032176763e+00
1.2033121133e+00
1.2034021961e+00
1.2034876541e+00
1.2035682900e+00
1.2036439803e+00
1.2037146662e+00
1.2037803516e+00
1.2038410931e+00
1.2038969971e+00
1.2039482095e+00
1.2039949115e+00
1.2040373107e+00
1.2040756366e+00
1.2041101319e+00
1.2041410498e+00
1.2041686458e+00
1.2041931757e+00
1.2042148895e+00
1.2042340299e+00
1.2042508278e+00
1.2042655021e+00
1.2042782564e+00
1.2042892798e+00
1.2042987449e+00
1.2043068094e+00
1.2043136152e+00
1.2043192905e+00
1.2043239495e+00
1.2043276950e+00
1.2043306185e+00
1.2043328029e+00
1.2043343226e+00
1.2043352462e+00
1.2043356363e+00
1.2043355520e+00
1.2043350485e+00
1.2043341789e+00
1.2043329937e+00
1.2043315419e+00
1.2043298706e+00
1.2043280251e+00
1.2043260489e+00
1.2043239830e+00
1.2043218659e+00
1.2043197333e+00
1.2043176173e+00
1.2043155464e+00
1.2043135455e+00
1.2043116352e+00
1.2043098320e+00
1.2043081483e+00
1.2043065929e+00
1.2043051705e+00
1.2043038824e+00
1.2043027271e+00
1.2043017003e+00
1.2043007955e+00
1.2043000046e+00
1.2042993181e+00
1.2042987256e+00
1.2042982163e+00
1.2042977791e+00
1.2042974032e+00
1.2042970779e+00
1.2042967931e+00
1.2042965392e+00
1.2042963071e+00
1.2042960885e+00
1.2042958753e+00
1.2042956598e+00
1.2042954346e+00
1.2042951926e+00
1.2042949265e+00
1.2042946296e+00
1.2042942953e+00
1.2042939181e+00
1.2042853029e+00
1.2015007901e+00
1.2015181146e+00
1.2015399547e+00
1.2015721866e+00
1.2016144525e+00
1.2016662838e+00
1.2017271126e+00
1.2017962786e+00
1.2018730448e+00
1.2019566066e+00
1.2020461100e+00
1.2021406622e+00
1.2022393504e+00
1.2023412522e+00
1.2024454545e+00
1.2025510616e+00
1.2026572130e+00
1.2027630890e+00
1.2028679255e+00
1.2029710173e+00
1.2030717290e+00
1.2031694953e+00
1.2032638288e+00
1.2033543162e+00
1.2034406238e+00
1.2035224908e+00
1.2035997312e+00
1.2036722254e+00
1.2037399202e+00
1.2038028187e+00
1.2038609783e+00
1.2039145007e+00
1.2039635286e+00
1.2040082360e+00
1.2040488242e+00
1.2040855134e+00
1.2041185388e+00
1.2041481429e+00
1.2041745726e+00
1.2041980727e+00
1.2042188843e+00
1.2042372392e+00
1.2042533596e+00
1.2042674538e+00
1.2042797173e+00
1.2042903293e+00
1.2042994548e+00
1.2043072426e+00
1.2043138276e+00
1.2043193300e+00
1.2043238580e+00
1.2043275074e+00
1.2043303644e+00
1.2043325061e+00
1.2043340025e+00
1.2043349175e+00
1.2043353102e+00
1.2043352362e+00
1.2043347481e+00
1.2043338964e+00
1.2043327301e+00
1.2043312966e+00
1.2043296421e+00
1.2043278113e+00
1.2043258472e+00
1.2043237910e+00
1.2043216813e+00
1.2043195539e+00
1.2043174417e+00
1.2043153737e+00
1.2043133753e+00
1.2043114677e+00