# vtk DataFile Version 2.0
Blank
ASCII
DATASET STRUCTURED_GRID
DIMENSIONS 101 101 2
POINTS 20402 float
0.0000000000e+00 0.0000000000e+00 0.0000000000e+00
1.0000000000e-02 0.0000000000e+00 0.0000000000e+00
2.0000000000e-02 0.0000000000e+00 0.0000000000e+00
3.0000000000e-02 0.0000000000e+00 0.0000000000e+00
4.0000000000e-02 0.0000000000e+00 0.0000000000e+00
5.0000000000e-02 0.0000000000e+00 0.0000000000e+00
6.0000000000e-02 0.0000000000e+00 0.0000000000e+00
7.0000000000e-02 0.0000000000e+00 0.0000000000e+00
8.0000000000e-02 0.0000000000e+00 0.0000000000e+00
9.0000000000e-02 0.0000000000e+00 0.0000000000e+00
1.0000000000e-01 0.0000000000e+00 0.0000000000e+00
1.1000000000e-01 0.0000000000e+00 0.0000000000e+00
1.2000000000e-01 0.0000000000e+00 0.0000000000e+00
1.3000000000e-01 0.0000000000e+00 0.0000000000e+00
1.4000000000e-01 0.0000000000e+00 0.0000000000e+00
1.5000000000e-01 0.0000000000e+00 0.0000000000e+00
1.6000000000e-01 0.0000000000e+00 0.0000000000e+00
1.7000000000e-01 0.0000000000e+00 0.0000000000e+00
1.8000000000e-01 0.0000000000e+00 0.0000000000e+00
1.9000000000e-01 0.0000000000e+00 0.0000000000e+00
2.0000000000e-01 0.0000000000e+00 0.0000000000e+00
2.1000000000e-01 0.0000000000e+00 0.0000000000e+00
2.2000000000e-01 0.0000000000e+00 0.0000000000e+00
2.3000000000e-01 0.0000000000e+00 0.0000000000e+00
2.4000000000e-01 0.0000000000e+00 0.0000000000e+00
2.5000000000e-01 0.0000000000e+00 0.0000000000e+00
2.6000000000e-01 0.0000000000e+00 0.0000000000e+00
2.7000000000e-01 0.0000000000e+00 0.0000000000e+00
2.8000000000e-01 0.0000000000e+00 0.0000000000e+00
2.9000000000e-01 0.0000000000e+00 0.0000000000e+00
3.0000000000e-01 0.0000000000e+00 0.0000000000e+00
3.1000000000e-01 0.0000000000e+00 0.0000000000e+00
3.2000000000e-01 0.0000000000e+00 0.0000000000e+00
3.3000000000e-01 0.0000000000e+00 0.0000000000e+00
3.4000000000e-01 0.0000000000e+00 0.0000000000e+00
3.5000000000e-01 0.0000000000e+00 0.0000000000e+00
3.6000000000e-01 0.0000000000e+00 0.0000000000e+00
3.7000000000e-01 0.0000000000e+00 0.0000000000e+00
3.8000000000e-01 0.0000000000e+00 0.0000000000e+00
3.9000000000e-01 0.0000000000e+00 0.0000000000e+00
4.0000000000e-01 0.0000000000e+00 0.0000000000e+00
4.1000000000e-01 0.0000000000e+00 0.0000000000e+00
4.2000000000e-01 0.0000000000e+00 0.0000000000e+00
4.3000000000e-01 0.0000000000e+00 0.0000000000e+00
4.4000000000e-01 0.0000000000e+00 0.0000000000e+00
4.5000000000e-01 0.0000000000e+00 0.0000000000e+00
4.6000000000e-01 0.0000000000e+00 0.0000000000e+00
4.7000000000e-01 0.0000000000e+00 0.0000000000e+00
4.8000000000e-01 0.0000000000e+00 0.0000000000e+00
4.9000000000e-01 0.0000000000e+00 0.0000000000e+00
5.0000000000e-01 0.0000000000e+00 0.0000000000e+00
5.1000000000e-01 0.0000000000e+00 0.0000000000e+00
5.2000000000e-01 0.0000000000e+00 0.0000000000e+00
5.3000000000e-01 0.0000000000e+00 0.0000000000e+00
5.4000000000e-01 0.0000000000e+00 0.0000000000e+00
5.5000000000e-01 0.0000000000e+00 0.0000000000e+00
5.6000000000e-01 0.0000000000e+00 0.0000000000e+00
5.7000000000e-01 0.0000000000e+00 0.0000000000e+00
5.8000000000e-01 0.0000000000e+00 0.0000000000e+00
5.9000000000e-01 0.0000000000e+00 0.0000000000e+00
6.0000000000e-01 0.0000000000e+00 0.0000000000e+00
6.1000000000e-01 0.0000000000e+00 0.0000000000e+00
6.2000000000e-01 0.0000000000e+00 0.0000000000e+00
6.3000000000e-01 0.0000000000e+00 0.0000000000e+00
6.4000000000e-01 0.0000000000e+00 0.0000000000e+00
6.5000000000e-01 0.0000000000e+00 0.0000000000e+00
6.6000000000e-01 0.0000000000e+00 0.0000000000e+00
6.7000000000e-01 0.0000000000e+00 0.0000000000e+00
6.8000000000e-01 0.0000000000e+00 0.0000000000e+00
6.9000000000e-01 0.0000000000e+00 0.0000000000e+00
7.0000000000e-01 0.0000000000e+00 0.0000000000e+00
7.1000000000e-01 0.0000000000e+00 0.0000000000e+00
7.2000000000e-01 0.0000000000e+00 0.0000000000e+00
7.3000000000e-01 0.0000000000e+00 0.0000000000e+00
7.4000000000e-01 0.0000000000e+00 0.0000000000e+00
7.5000000000e-01 0.0000000000e+00 0.0000000000e+00
7.6000000000e-01 0.0000000000e+00 0.0000000000e+00
7.7000000000e-01 0.0000000000e+00 0.0000000000e+00
7.8000000000e-01 0.0000000000e+00 0.0000000000e+00
7.9000000000e-01 0.0000000000e+00 0.0000000000e+00
8.0000000000e-01 0.0000000000e+00 0.0000000000e+00
8.1000000000e-01 0.0000000000e+00 0.0000000000e+00
8.2000000000e-01 0.0000000000e+00 0.0000000000e+00
8.3000000000e-01 0.0000000000e+00 0.0000000000e+00
8.4000000000e-01 0.0000000000e+00 0.0000000000e+00
8.5000000000e-01 0.0000000000e+00 0.0000000000e+00
8.6000000000e-01 0.0000000000e+00 0.0000000000e+00
8.7000000000e-01 0.0000000000e+00 0.0000000000e+00
8.8000000000e-01 0.0000000000e+00 0.0000000000e+00
8.9000000000e-01 0.0000000000e+00 0.0000000000e+00
9.0000000000e-01 0.0000000000e+00 0.0000000000e+00
9.1000000000e-01 0.0000000000e+00 0.0000000000e+00
9.2000000000e-01 0.0000000000e+00 0.0000000000e+00
9.3000000000e-01 0.0000000000e+00 0.0000000000e+00
9.4000000000e-01 0.0000000000e+00 0.0000000000e+00
9.5000000000e-01 0.0000000000e+00 0.0000000000e+00
9.6000000000e-01 0.0000000000e+00 0.0000000000e+00
9.7000000000e-01 0.0000000000e+00 0.0000000000e+00
9.8000000000e-01 0.0000000000e+00 0.0000000000e+00
9.9000000000e-01 0.0000000000e+00 0.0000000000e+00
1.0000000000e+00 0.0000000000e+00 0.0000000000e+00
0.0000000000e+00 1.0000000000e-02 0.0000000000e+00
1.0000000000e-02 1.0000000000e-02 0.0000000000e+00
2.0000000000e-02 1.0000000000e-02 0.0000000000e+00
3.0000000000e-02 1.0000000000e-02 0.0000000000e+00
4.0000000000e-02 1.0000000000e-02 0.0000000000e+00
5.0000000000e-02 1.0000000000e-02 0.0000000000e+00
6.0000000000e-02 1.0000000000e-02 0.0000000000e+00
7.0000000000e-02 1.0000000000e-02 0.0000000000e+00
8.0000000000e-02 1.0000000000e-02 0.0000000000e+00
9.0000000000e-02 1.0000000000e-02 0.0000000000e+00
1.0000000000e-01 1.0000000000e-02 0.0000000000e+00
1.1000000000e-01 1.0000000000e-02 0.0000000000e+00
1.2000000000e-01 1.0000000000e-02 0.0000000000e+00
1.3000000000e-01 1.0000000000e-02 0.0000000000e+00
1.4000000000e-01 1.0000000000e-02 0.0000000000e+00
1.5000000000e-01 1.0000000000e-02 0.0000000000e+00
1.6000000000e-01 1.0000000000e-02 0.0000000000e+00
1.7000000000e-01 1.0000000000e-02 0.0000000000e+00
1.8000000000e-01 1.0000000000e-02 0.0000000000e+00
1.9000000000e-01 1.0000000000e-02 0.0000000000e+00
2.0000000000e-01 1.0000000000e-02 0.0000000000e+00
2.1000000000e-01 1.0000000000e-02 0.0000000000e+00
2.2000000000e-01 1.0000000000e-02 0.0000000000e+00
2.3000000000e-01 1.0000000000e-02 0.0000000000e+00
2.4000000000e-01 1.0000000000e-02 0.0000000000e+00
2.5000000000e-01 1.0000000000e-02 0.0000000000e+00
2.6000000000e-01 1.0000000000e-02 0.0000000000e+00
2.7000000000e-01 1.0000000000e-02 0.0000000000e+00
2.8000000000e-01 1.0000000000e-02 0.0000000000e+00
2.9000000000e-01 1.0000000000e-02 0.0000000000e+00
3.0000000000e-01 1.0000000000e-02 0.0000000000e+00
3.1000000000e-01 1.0000000000e-02 0.0000000000e+00
3.2000000000e-01 1.0000000000e-02 0.0000000000e+00
3.3000000000e-01 1.0000000000e-02 0.0000000000e+00
3.4000000000e-01 1.0000000000e-02 0.0000000000e+00
3.5000000000e-01 1.0000000000e-02 0.0000000000e+00
3.6000000000e-01 1.0000000000e-02 0.0000000000e+00
3.7000000000e-01 1.0000000000e-02 0.0000000000e+00
3.8000000000e-01 1.0000000000e-02 0.0000000000e+00
3.9000000000e-01 1.0000000000e-02 0.0000000000e+00
4.0000000000e-01 1.0000000000e-02 0.0000000000e+00
4.1000000000e-01 1.0000000000e-02 0.0000000000e+00
4.2000000000e-01 1.0000000000e-02 0.0000000000e+00
4.3000000000e-01 1.0000000000e-02 0.0000000000e+00
4.4000000000e-01 1.0000000000e-02 0.0000000000e+00
4.5000000000e-01 1.0000000000e-02 0.0000000000e+00
4.6000000000e-01 1.0000000000e-02 0.0000000000e+00
4.7000000000e-01 1.0000000000e-02 0.0000000000e+00
4.8000000000e-01 1.0000000000e-02 0.0000000000e+00
4.9000000000e-01 1.0000000000e-02 0.0000000000e+00
5.0000000000e-01 1.0000000000e-02 0.0000000000e+00
5.1000000000e-01 1.0000000000e-02 0.0000000000e+00
5.2000000000e-01 1.0000000000e-02 0.0000000000e+00
5.3000000000e-01 1.0000000000e-02 0.0000000000e+00
5.4000000000e-01 1.0000000000e-02 0.0000000000e+00
5.5000000000e-01 1.0000000000e-02 0.0000000000e+00
5.6000000000e-01 1.0000000000e-02 0.0000000000e+00
5.7000000000e-01 1.0000000000e-02 0.0000000000e+00
5.8000000000e-01 1.0000000000e-02 0.0000000000e+00
5.9000000000e-01 1.0000000000e-02 0.0000000000e+00
6.0000000000e-01 1.0000000000e-02 0.0000000000e+00
6.1000000000e-01 1.0000000000e-02 0.0000000000e+00
6.2000000000e-01 1.0000000000e-02 0.0000000000e+00
6.3000000000e-01 1.0000000000e-02 0.0000000000e+00
6.4000000000e-01 1.0000000000e-02 0.0000000000e+00
6.5000000000e-01 1.0000000000e-02 0.0000000000e+00
6.6000000000e-01 1.0000000000e-02 0.0000000000e+00
6.7000000000e-01 1.0000000000e-02 0.0000000000e+00
6.8000000000e-01 1.0000000000e-02 0.0000000000e+00
6.9000000000e-01 1.0000000000e-02 0.0000000000e+00
7.0000000000e-01 1.0000000000e-02 0.0000000000e+00
7.1000000000e-01 1.0000000000e-02 0.0000000000e+00
7.2000000000e-01 1.0000000000e-02 0.0000000000e+00
7.3000000000e-01 1.0000000000e-02 0.0000000000e+00
7.4000000000e-01 1.0000000000e-02 0.0000000000e+00
7.5000000000e-01 1.0000000000e-02 0.0000000000e+00
7.6000000000e-01 1.0000000000e-02 0.0000000000e+00
7.7000000000e-01 1.0000000000e-02 0.0000000000e+00
7.8000000000e-01 1.0000000000e-02 0.0000000000e+00
7.9000000000e-01 1.0000000000e-02 0.0000000000e+00
8.0000000000e-01 1.0000000000e-02 0.0000000000e+00
8.1000000000e-01 1.0000000000e-02 0.0000000000e+00
8.2000000000e-01 1.0000000000e-02 0.0000000000e+00
8.3000000000e-01 1.0000000000e-02 0.0000000000e+00
8.4000000000e-01 1.0000000000e-02 0.0000000000e+00
8.5000000000e-01 1.0000000000e-02 0.0000000000e+00
8.6000000000e-01 1.0000000000e-02 0.0000000000e+00
8.7000000000e-01 1.0000000000e-02 0.0000000000e+00
8.8000000000e-01 1.0000000000e-02 0.0000000000e+00
8.9000000000e-01 1.0000000000e-02 0.0000000000e+00
9.0000000000e-01 1.0000000000e-02 0.0000000000e+00
9.1000000000e-01 1.0000000000e-02 0.0000000000e+00
9.2000000000e-01 1.0000000000e-02 0.0000000000e+00
[...]
CELL_DATA 10000

SCALARS massDensity float
LOOKUP_TABLE default
1.1995174262e+00
1.1995383422e+00
1.1995986180e+00
1.1996830300e+00
1.1997904771e+00
1.1999194912e+00
1.2000682625e+00
1.2002346865e+00
1.2004164296e+00
1.2006109876e+00
1.2008157549e+00
1.2010280814e+00
1.2012453372e+00
1.2014649625e+00
1.2016845221e+00
1.2019017439e+00
1.2021145590e+00
1.2023211249e+00
1.2025198496e+00
1.2027093987e+00
1.2028887036e+00
1.2030569534e+00
1.2032135898e+00
1.2033582878e+00
1.2034909400e+00
1.2036116299e+00
1.2037206113e+00
1.2038182779e+00
1.2039051409e+00
1.2039818002e+00
1.2040489227e+00
1.2041072170e+00
1.2041574166e+00
1.2042002582e+00
1.2042364703e+00
1.2042667577e+00
1.2042917944e+00
1.2043122131e+00
1.2043286034e+00
1.2043415054e+00
1.2043514112e+00
1.2043587618e+00
1.2043639514e+00
1.2043673265e+00
1.2043691916e+00
1.2043698094e+00
1.2043694071e+00
1.2043681778e+00
1.2043662860e+00
1.2043638693e+00
1.2043610435e+00
1.2043579042e+00
1.2043545313e+00
1.2043509894e+00
1.2043473327e+00
1.2043436043e+00
1.2043398404e+00
1.2043360696e+00
1.2043323162e+00
1.2043285990e+00
1.2043249344e+00
1.2043213353e+00
1.2043178128e+00
1.2043143758e+00
1.2043110321e+00
1.2043077878e+00
1.2043046487e+00
1.2043016188e+00
1.2042987021e+00
1.2042959013e+00
1.2042932188e+00
1.2042906561e+00
1.2042882143e+00
1.2042858936e+00
1.2042836938e+00
1.2042816141e+00
1.2042796531e+00
1.2042778090e+00
1.2042760797e+00
1.2042744625e+00
1.2042729548e+00
1.2042715537e+00
1.2042702566e+00
1.2042690613e+00
1.2042679659e+00
1.2042669696e+00
1.2042660725e+00
1.2042652765e+00
1.2042645854e+00
1.2042640057e+00
1.2042635472e+00
1.2042632250e+00
1.2042630603e+00
1.2042630840e+00
1.2042633401e+00
1.2042638912e+00
1.2042648248e+00
1.2042662582e+00
1.2042683315e+00
1.2042590853e+00
1.1995383422e+00
1.1995546439e+00
1.1996120458e+00
1.1996935814e+00
1.1997980663e+00
1.1999239895e+00
1.2000695287e+00
1.2002325978e+00
1.2004108920e+00
1.2006019527e+00
1.2008032190e+00
1.2010120948e+00
1.2012259977e+00
1.2014424205e+00
1.2016589705e+00
1.2018734198e+00
1.2020837314e+00
1.2022880944e+00
1.2024849351e+00
1.2026729354e+00
1.2028510301e+00
1.2030184099e+00
1.2031745063e+00
1.2033189829e+00
1.2034517113e+00
1.2035727548e+00
1.2036823391e+00
1.2037808326e+00
1.2038687159e+00
1.2039465622e+00
1.2040150086e+00
1.2040747393e+00
1.2041264608e+00
1.2041708892e+00
1.2042087312e+00
1.2042406755e+00
1.2042673791e+00
1.2042894637e+00
1.2043075066e+00
1.2043220408e+00
1.2043335499e+00
1.2043424715e+00
1.2043491942e+00
1.2043540632e+00
1.2043573796e+00
1.2043594063e+00
1.2043603686e+00
1.2043604606e+00
1.2043598456e+00
1.2043586627e+00
1.2043570269e+00
1.2043550355e+00
1.2043527676e+00
1.2043502898e+00
1.2043476552e+00
1.2043449089e+00
1.2043420861e+00
1.2043392172e+00
1.2043363256e+00
1.2043334317e+00
1.2043305511e+00
1.2043276981e+00
1.2043248834e+00
1.2043221170e+00
1.2043194064e+00
1.2043167592e+00
1.2043141808e+00
1.2043116767e+00
1.2043092509e+00
1.2043069076e+00
1.2043046495e+00
1.2043024798e+00
1.2043004000e+00
1.2042984120e+00
1.2042965168e+00
1.2042947150e+00
1.2042930066e+00
1.2042913916e+00
1.2042898691e+00
1.2042884384e+00
1.2042870982e+00
1.2042858472e+00
1.2042846842e+00
1.2042836079e+00
1.2042826173e+00
1.2042817121e+00
1.2042808923e+00
1.2042801589e+00
1.2042795140e+00
1.2042789613e+00
1.2042785063e+00
1.2042781569e+00
1.2042779240e+00
1.2042778226e+00
1.2042778718e+00
1.2042780949e+00
1.2042785177e+00
1.2042791598e+00
1.2042800145e+00
1.2042684680e+00
1.1995986180e+00
1.1996120458e+00
1.1996686049e+00
1.1997491559e+00
1.1998524753e+00
1.1999770249e+00
1.2001209788e+00
1.2002822534e+00
1.2004585633e+00
1.2006474679e+00
1.2008464374e+00
1.2010529010e+00
1.2012643126e+00
1.2014781928e+00
1.2016921860e+00
1.2019040912e+00
1.2021119056e+00
1.2023138415e+00
1.2025083534e+00
1.2026941406e+00
1.2028701586e+00
1.2030356082e+00
1.2031899334e+00
1.2033328002e+00
1.2034640853e+00
1.2035838475e+00
1.2036923113e+00
1.2037898354e+00
1.2038768945e+00
1.2039540491e+00
1.2040219276e+00
1.2040811998e+00
1.2041325627e+00
1.2041767183e+00
1.2042143638e+00
1.2042461750e+00
1.2042728005e+00
1.2042948508e+00
1.2043128965e+00
1.2043274611e+00
1.2043390233e+00
1.2043480127e+00
1.2043548145e+00
1.2043597680e+00
1.2043631717e+00
1.2043652839e+00
1.2043663287e+00
1.2043664962e+00
1.2043659493e+00
1.2043648242e+00
1.2043632361e+00
1.2043612797e+00
1.2043590349e+00
1.2043565661e+00
1.2043539277e+00
1.2043511629e+00
1.2043483085e+00
1.2043453933e+00
1.2043424423e+00
1.2043394749e+00
1.2043365084e+00
1.2043335562e+00
1.2043306307e+00
1.2043277416e+00
1.2043248980e+00
1.2043221073e+00
1.2043193767e+00
1.2043167116e+00
1.2043141179e+00
1.2043115999e+00
1.2043091621e+00
1.2043068078e+00
1.2043045404e+00
1.2043023623e+00
1.2043002760e+00
1.2042982826e+00
1.2042963838e+00
1.2042945800e+00
1.2042928718e+00
1.2042912590e+00
1.2042897416e+00
1.2042883188e+00
1.2042869903e+00
1.2042857552e+00
1.2042846133e+00
1.2042835641e+00
1.2042826078e+00
1.2042817451e+00
1.2042809774e+00
1.2042803071e+00
1.2042797376e+00
1.2042792737e+00
1.2042789215e+00
1.2042786882e+00
1.2042785812e+00
1.2042786061e+00
1.2042787613e+00
1.2042790280e+00
1.2042793490e+00
1.2042666272e+00
1.1996830300e+00
1.1996935814e+00
1.1997491559e+00
1.1998283849e+00
1.1999300475e+00
1.2000526150e+00
1.2001942700e+00
1.2003529541e+00
1.2005264055e+00
1.2007122228e+00
1.2009079100e+00
1.2011109434e+00
1.2013188153e+00
1.2015290960e+00
1.2017394683e+00
1.2019477785e+00
1.2021520583e+00
1.2023505611e+00
1.2025417690e+00
1.2027244134e+00
1.2028974681e+00
1.2030601555e+00
1.2032119285e+00
1.2033524642e+00
1.2034816387e+00
1.2035995130e+00
1.2037063032e+00
1.2038023632e+00
1.2038881539e+00
1.2039642259e+00
1.2040311908e+00
1.2040897063e+00
1.2041404513e+00
1.2041841151e+00
1.2042213776e+00
1.2042529023e+00
1.2042793225e+00
1.2043012380e+00
1.2043192058e+00
1.2043337411e+00
1.2043453111e+00
1.2043543393e+00
1.2043612015e+00
1.2043662322e+00
1.2043697230e+00
1.2043719287e+00
1.2043730678e+00
1.2043733284e+00
1.2043728689e+00
1.2043718245e+00
1.2043703068e+00
1.2043684103e+00
1.2043662119e+00
1.2043637765e+00
1.2043611561e+00
1.2043583948e+00
1.2043555273e+00
1.2043525838e+00
1.2043495876e+00
1.2043465596e+00
1.2043435160e+00
1.2043404718e+00
1.2043374386e+00
1.2043344278e+00
1.2043314482e+00
1.2043285089e+00
1.2043256168e+00
1.2043227795e+00
1.2043200027e+00
1.2043172929e+00
1.2043146547e+00
1.2043120934e+00
1.2043096130e+00
1.2043072176e+00
1.2043049104e+00
1.2043026945e+00
1.2043005721e+00
1.2042985455e+00
1.2042966159e+00
1.2042947847e+00
1.2042930526e+00
1.2042914202e+00
1.2042898876e+00
1.2042884550e+00
1.2042871225e+00
1.2042858901e+00
1.2042847579e+00
1.2042837265e+00
1.2042827964e+00
1.2042819689e+00
1.2042812454e+00
1.2042806277e+00
1.2042801174e+00
1.2042797157e+00
1.2042794214e+00
1.2042792285e+00
1.2042791215e+00
1.2042790672e+00
1.2042790019e+00
1.2042655435e+00
1.1997904771e+00
1.1997980663e+00
1.1998524753e+00
1.1999300475e+00
1.2000295909e+00
1.2001495963e+00
1.2002882791e+00
1.2004436102e+00
1.2006133739e+00
1.2007952096e+00
1.2009866776e+00
1.2011853022e+00
1.2013886371e+00
1.2015943021e+00
1.2018000406e+00
1.2020037452e+00
1.2022035026e+00
1.2023976051e+00
1.2025845798e+00
1.2027631868e+00
1.2029324328e+00
1.2030915574e+00
1.2032400331e+00
1.2033775426e+00
1.2035039699e+00
1.2036193710e+00
1.2037239600e+00
1.2038180779e+00
1.2039021762e+00
1.2039767875e+00
1.2040425095e+00
1.2040999791e+00
1.2041498595e+00
1.2041928190e+00
1.2042295215e+00
1.2042606109e+00
1.2042867060e+00
1.2043083889e+00
1.2043262045e+00
1.2043406528e+00
1.2043521913e+00
1.2043612307e+00
1.2043681397e+00
1.2043732426e+00
1.2043768253e+00
1.2043791349e+00
1.2043803859e+00
1.2043807602e+00
1.2043804138e+00
1.2043794768e+00
1.2043780595e+00
1.2043762525e+00
1.2043741321e+00
1.2043717600e+00
1.2043691884e+00
1.2043664587e+00
1.2043636065e+00
1.2043606596e+00
1.2043576426e+00
1.2043545748e+00
1.2043514736e+00
1.2043483529e+00
1.2043452258e+00
1.2043421030e+00
1.2043389950e+00
1.2043359103e+00
1.2043328580e+00
1.2043298454e+00
1.2043268804e+00
1.2043239693e+00
1.2043211192e+00
1.2043183357e+00
1.2043156248e+00
1.2043129914e+00
1.2043104406e+00
1.2043079765e+00
1.2043056033e+00
1.2043033239e+00
1.2043011418e+00
1.2042990591e+00
1.2042970781e+00
1.2042952003e+00
1.2042934272e+00
1.2042917596e+00
1.2042901986e+00
1.2042887443e+00
1.2042873975e+00
1.2042861583e+00
1.2042850270e+00
1.2042840036e+00
1.2042830881e+00
1.2042822797e+00
1.2042815769e+00
1.2042809763e+00
1.2042804714e+00
1.2042800501e+00
1.2042796914e+00
1.2042793603e+00
1.2042790014e+00
1.2042650968e+00
1.1999194912e+00
1.1999239895e+00
1.1999770249e+00
1.2000526150e+00
1.2001495963e+00
1.2002664991e+00
1.2004015732e+00
1.2005528410e+00
1.2007181330e+00
1.2008951525e+00
1.2010815153e+00
1.2012748173e+00
1.2014726717e+00
1.2016727714e+00
1.2018729179e+00
1.2020710724e+00
1.2022653726e+00
1.2024541698e+00
1.2026360316e+00
1.2028097637e+00
1.2029744004e+00
1.2031292116e+00
1.2032736837e+00
1.2034075152e+00
1.2035305907e+00
1.2036429695e+00
1.2037448554e+00
1.2038365824e+00
1.2039185844e+00
1.2039913799e+00
1.2040555442e+00
1.2041116966e+00
1.2041604762e+00
1.2042025321e+00
1.2042385048e+00
1.2042690200e+00
1.2042946748e+00
1.2043160350e+00
1.2043336267e+00
1.2043479363e+00
1.2043594054e+00
1.2043684339e+00
1.2043753774e+00
1.2043805520e+00
1.2043842332e+00
1.2043866620e+00
1.2043880446e+00
1.2043885589e+00
1.2043883541e+00
1.2043875576e+00
1.2043862746e+00
1.2043845940e+00
1.2043825880e+00
1.2043803176e+00
1.2043778315e+00
1.2043751713e+00
1.2043723696e+00
1.2043694550e+00
1.2043664497e+00
1.2043633740e+00
1.2043602435e+00
1.2043570735e+00
1.2043538758e+00
1.2043506626e+00
1.2043474436e+00
1.2043442291e+00
1.2043410277e+00
1.2043378488e+00
1.2043346999e+00
1.2043315897e+00
1.2043285254e+00
1.2043255149e+00
1.2043225647e+00
1.2043196820e+00
1.2043168727e+00
1.2043141430e+00
1.2043114981e+00
1.2043089434e+00
1.2043064829e+00
1.2043041212e+00
1.2043018613e+00
1.2042997067e+00
1.2042976597e+00
1.2042957227e+00
1.2042938971e+00
1.2042921845e+00
1.2042905856e+00
1.2042891009e+00
1.2042877304e+00
1.2042864737e+00
1.2042853294e+00
1.2042842954e+00
1.2042833678e+00
1.2042825407e+00
1.2042818046e+00
1.2042811449e+00
1.2042805400e+00
1.2042799583e+00
1.2042793559e+00
1.2042652002e+00
1.2000682625e+00
1.2000695287e+00
1.2001209788e+00
1.2001942700e+00
1.2002882791e+00
1.2004015732e+00
1.2005324562e+00
1.2006789998e+00
1.2008391034e+00
1.2010105310e+00
1.2011909781e+00
1.2013781083e+00
1.2015696187e+00
1.2017632709e+00
1.2019569477e+00
1.2021486739e+00
1.2023366601e+00
1.2025193106e+00
1.2026952524e+00
1.2028633304e+00
1.2030226220e+00
1.2031724209e+00
1.2033122396e+00
1.2034417850e+00
1.2035609521e+00
1.2036697950e+00
1.2037685151e+00
1.2038574308e+00
1.2039369635e+00
1.2040076093e+00
1.2040699252e+00
1.2041245044e+00
1.2041719646e+00
1.2042129282e+00
1.2042480144e+00
1.2042778231e+00
1.2043029315e+00
1.2043238828e+00
1.2043411856e+00
1.2043553068e+00
1.2043666737e+00
1.2043756699e+00
1.2043826398e+00
1.2043878863e+00
1.2043916764e+00
1.2043942405e+00
1.2043957787e+00
1.2043964604e+00
1.2043964307e+00
1.2043958103e+00
1.2043947015e+00
1.2043931878e+00
1.2043913399e+00
1.2043892144e+00
1.2043868592e+00
1.2043843122e+00
1.2043816062e+00
1.2043787667e+00
1.2043758165e+00
1.2043727733e+00
1.2043696538e+00
1.2043664712e+00
1.2043632388e+00
1.2043599672e+00
1.2043566677e+00
1.2043533497e+00
1.2043500236e+00
1.2043466980e+00
1.2043433829e+00
1.2043400866e+00
1.2043368185e+00
1.2043335868e+00
1.2043304004e+00
1.2043272670e+00
1.2043241949e+00
1.2043211913e+00
1.2043182638e+00
1.2043154185e+00
1.2043126623e+00
1.2043100004e+00
1.2043074385e+00
1.2043049809e+00
1.2043026320e+00
1.2043003949e+00
1.2042982730e+00
1.2042962682e+00
1.2042943825e+00
1.2042926167e+00
1.2042909711e+00
1.2042894450e+00
1.2042880369e+00
1.2042867434e+00
1.2042855600e+00
1.2042844791e+00
1.2042834905e+00
1.2042825794e+00
1.2042817255e+00
1.2042809023e+00
1.2042800763e+00
1.2042658077e+00
1.2002346865e+00
1.2002325978e+00
1.2002822534e+00
1.2003529541e+00
1.2004436102e+00
1.2005528410e+00
1.2006789998e+00
1.2008202284e+00
1.2009744899e+00
1.2011396326e+00
1.2013134257e+00
1.2014936249e+00
1.2016780051e+00
1.2018644204e+00
1.2020508284e+00
1.2022353401e+00
1.2024162317e+00
1.2025919809e+00
1.2027612667e+00
1.2029229909e+00
1.2030762660e+00
1.2032204238e+00
1.2033549949e+00
1.2034797061e+00
1.2035944545e+00
1.2036992981e+00
1.2037944269e+00
1.2038801506e+00
1.2039568699e+00
1.2040250634e+00
1.2040852614e+00
1.2041380345e+00
1.2041839718e+00
1.2042236713e+00
1.2042577234e+00
1.2042867051e+00
1.2043111667e+00
1.2043316307e+00
1.2043485823e+00
1.2043624705e+00
1.2043737030e+00
1.2043826492e+00
1.2043896370e+00
1.2043949583e+00
1.2043988671e+00
1.2044015854e+00
1.2044033028e+00
1.2044041828e+00
1.2044043621e+00
1.2044039573e+00
1.2044030640e+00
1.2044017631e+00
1.2044001197e+00
1.2043981889e+00
1.2043960141e+00
1.2043936324e+00
1.2043910730e+00
1.2043883611e+00
1.2043855164e+00
1.2043825571e+00
1.2043794974e+00
1.2043763512e+00
1.2043731296e+00
1.2043698446e+00
1.2043665059e+00
1.2043631244e+00
1.2043597092e+00
1.2043562710e+00
1.2043528190e+00
1.2043493636e+00
1.2043459139e+00
1.2043424806e+00
1.2043390725e+00
1.2043357001e+00
1.2043323721e+00
1.2043290982e+00
1.2043258869e+00
1.2043227471e+00
1.2043196864e+00
1.2043167130e+00
1.2043138334e+00
1.2043110545e+00
1.2043083817e+00
1.2043058206e+00
1.2043033752e+00
1.2043010496e+00
1.2042988461e+00
1.2042967670e+00
1.2042948130e+00
1.2042929841e+00
1.2042912785e+00
1.2042896933e+00
1.2042882234e+00
1.2042868614e+00
1.2042855971e+00
1.2042844167e+00
1.2042833027e+00
1.2042822331e+00
1.2042811826e+00
1.2042669090e+00
1.2004164296e+00
1.2004108920e+00
1.2004585633e+00
1.2005264055e+00
1.2006133739e+00
1.2007181330e+00
1.2008391034e+00
1.2009744899e+00
1.2011223412e+00
1.2012805822e+00
1.2014470794e+00
1.2016196727e+00
1.2017962385e+00
1.2019747152e+00
1.2021531584e+00
1.2023297563e+00
1.2025028723e+00
1.2026710488e+00
1.2028330355e+00
1.2029877821e+00
1.2031344524e+00
1.2032724077e+00
1.2034012095e+00
1.2035205958e+00
1.2036304762e+00
1.2037309038e+00
1.2038220656e+00
1.2039042539e+00
1.2039778548e+00
1.2040433211e+00
1.2041011612e+00
1.2041519157e+00
1.2041961478e+00
1.2042344246e+00
1.2042673104e+00
1.2042953523e+00
1.2043190765e+00
1.2043389786e+00
1.2043555225e+00
1.2043691342e+00
1.2043802037e+00
1.2043890810e+00
1.2043960801e+00
1.2044014773e+00
1.2044055157e+00
1.2044084048e+00
1.2044103262e+00
1.2044114335e+00
1.2044118576e+00
1.2044117070e+00
1.2044110734e+00
1.2044100312e+00
1.2044086430e+00
1.2044069583e+00
1.2044050192e+00
1.2044028581e+00
1.2044005034e+00
1.2043979765e+00
1.2043952969e+00
1.2043924795e+00
1.2043895387e+00
1.2043864859e+00
1.2043833328e+00
1.2043800890e+00
1.2043767654e+00
1.2043733711e+00
1.2043699166e+00
1.2043664114e+00
1.2043628664e+00
1.2043592911e+00
1.2043556969e+00
1.2043520938e+00
1.2043484935e+00
1.2043449059e+00
1.2043413428e+00
1.2043378141e+00
1.2043343312e+00
1.2043309037e+00
1.2043275422e+00
1.2043242555e+00
1.2043210534e+00
1.2043179435e+00
1.2043149343e+00
1.2043120322e+00
1.2043092439e+00
1.2043065743e+00
1.2043040280e+00
1.2043016080e+00
1.2042993166e+00
1.2042971544e+00
1.2042951207e+00
1.2042932130e+00
1.2042914271e+00
1.2042897560e+00
1.2042881908e+00
1.2042867193e+00
1.2042853267e+00
1.2042839954e+00
1.2042827060e+00
1.2042685219e+00
1.2006109876e+00
1.2006019527e+00
1.2006474679e+00
1.2007122228e+00
1.2007952096e+00
1.2008951525e+00
1.2010105310e+00
1.2011396326e+00
1.2012805822e+00
1.2014314035e+00
1.2015900506e+00
1.2017544709e+00
1.2019226319e+00
1.2020925797e+00
1.2022624572e+00
1.2024305519e+00
1.2025953040e+00
1.2027553404e+00
1.2029094715e+00
1.2030567121e+00
1.2031962675e+00
1.2033275429e+00
1.2034501214e+00
1.2035637642e+00
1.2036683841e+00
1.2037640387e+00
1.2038509034e+00
1.2039292605e+00
1.2039994732e+00
1.2040619742e+00
1.2041172424e+00
1.2041657925e+00
1.2042081551e+00
1.2042448696e+00
1.2042764679e+00
1.2043034698e+00
1.2043263719e+00
1.2043456449e+00
1.2043617265e+00
1.2043750218e+00
1.2043858985e+00
1.2043946895e+00
1.2044016907e+00
1.2044071646e+00
1.2044113398e+00
1.2044144156e+00
1.2044165620e+00
1.2044179249e+00
1.2044186259e+00
1.2044187682e+00
1.2044184360e+00
1.2044176998e+00
1.2044166160e+00
1.2044152317e+00
1.2044135836e+00
1.2044117027e+00
1.2044096127e+00
1.2044073343e+00
1.2044048830e+00
1.2044022734e+00
1.2043995165e+00
1.2043966237e+00
1.2043936039e+00
1.2043904673e+00
1.2043872220e+00
1.2043838783e+00
1.2043804447e+00
1.2043769319e+00
1.2043733492e+00
1.2043697081e+00
1.2043660186e+00
1.2043622930e+00
1.2043585422e+00
1.2043547788e+00
1.2043510142e+00
1.2043472613e+00
1.2043435314e+00
1.2043398374e+00
1.2043361902e+00
1.2043326020e+00
1.2043290832e+00
1.2043256448e+00
1.2043222960e+00
1.2043190466e+00
1.2043159040e+00
1.2043128762e+00
1.2043099687e+00
1.2043071871e+00
1.2043045345e+00
1.2043020137e+00
1.2042996247e+00
1.2042973668e+00
1.2042952366e+00
1.2042932291e+00
1.2042913365e+00
1.2042895490e+00
1.2042878545e+00
1.2042862389e+00
1.2042846872e+00
1.2042706861e+00
1.2008157549e+00
1.2008032190e+00
1.2008464374e+00
1.2009079100e+00
1.2009866776e+00
1.2010815153e+00
1.2011909781e+00
1.2013134257e+00
1.2014470794e+00
1.2015900506e+00
1.2017404031e+00
1.2018961795e+00
1.2020554614e+00
1.2022163901e+00
1.2023772179e+00
1.2025363197e+00
1.2026922327e+00
1.2028436566e+00
1.2029894808e+00
1.2031287741e+00
1.2032607992e+00
1.2033849945e+00
1.2035009783e+00
1.2036085248e+00
1.2037075608e+00
1.2037981398e+00
1.2038804336e+00
1.2039547065e+00
1.2040213054e+00
1.2040806355e+00
1.2041331510e+00
1.2041793340e+00
1.2042196868e+00
1.2042547144e+00
1.2042849198e+00
1.2043107903e+00
1.2043327949e+00
1.2043513752e+00
1.2043669449e+00
1.2043798837e+00
1.2043905392e+00
1.2043992235e+00
1.2044062162e+00
1.2044117630e+00
1.2044160800e+00
1.2044193530e+00
1.2044217424e+00
1.2044233835e+00
1.2044243911e+00
1.2044248597e+00
1.2044248685e+00
1.2044244810e+00
1.2044237502e+00
1.2044227172e+00
1.2044214163e+00
1.2044198736e+00
1.2044181109e+00
1.2044161447e+00
1.2044139894e+00
1.2044116556e+00
1.2044091538e+00
1.2044064919e+00
1.2044036786e+00
1.2044007210e+00
1.2043976277e+00
1.2043944060e+00
1.2043910653e+00
1.2043876140e+00
1.2043840624e+00
1.2043804203e+00
1.2043766994e+00
1.2043729105e+00
1.2043690665e+00
1.2043651793e+00
1.2043612626e+00
1.2043573288e+00
1.2043533923e+00
1.2043494658e+00
1.2043455635e+00
1.2043416979e+00
1.2043378827e+00
1.2043341297e+00
1.2043304515e+00
1.2043268587e+00
1.2043233623e+00
1.2043199712e+00
1.2043166941e+00
1.2043135377e+00
1.2043105081e+00
1.2043076091e+00
1.2043048435e+00
1.2043022116e+00
1.2042997124e+00
1.2042973425e+00
1.2042950965e+00
1.2042929667e+00
1.2042909439e+00
1.2042890171e+00
1.2042871747e+00
1.2042734567e+00
1.2010280814e+00
1.2010120948e+00
1.2010529010e+00
1.2011109434e+00
1.2011853022e+00
1.2012748173e+00
1.2013781083e+00
1.2014936249e+00
1.2016196727e+00
1.2017544709e+00
1.2018961795e+00
1.2020429581e+00
1.2021929884e+00
1.2023445284e+00
1.2024959262e+00
1.2026456642e+00
1.2027923635e+00
1.2029348155e+00
1.2030719758e+00
1.2032029840e+00
1.2033271484e+00
1.2034439551e+00
1.2035530465e+00
1.2036542221e+00
1.2037474133e+00
1.2038326786e+00
1.2039101782e+00
1.2039801657e+00
1.2040429642e+00
1.2040989574e+00
1.2041485681e+00
1.2041922506e+00
1.2042304726e+00
1.2042637090e+00
1.2042924284e+00
1.2043170885e+00
1.2043381265e+00
1.2043559572e+00
1.2043709663e+00
1.2043835107e+00
1.2043939143e+00
1.2044024703e+00
1.2044094392e+00
1.2044150519e+00
1.2044195089e+00
1.2044229849e+00
1.2044256280e+00
1.2044275651e+00
1.2044289012e+00
1.2044297246e+00
1.2044301068e+00
1.2044301068e+00
1.2044297710e+00
1.2044291374e+00
1.2044282348e+00
1.2044270867e+00
1.2044257104e+00
1.2044241205e+00
1.2044223270e+00
1.2044203394e+00
1.2044181642e+00
1.2044158085e+00
1.2044132773e+00
1.2044105774e+00
1.2044077140e+00
1.2044046945e+00
1.2044015252e+00
1.2043982151e+00
1.2043947719e+00
1.2043912063e+00
1.2043875279e+00
1.2043837489e+00